unknown system                          
           1
    10.422296    0.000000    0.000000
    -5.258445   12.238231    0.000000
     0.000000    0.000000   23.000000
   B 
 104
Direct configuration=     1
   0.88273846  0.01465769  0.40869565
   0.02192692  0.44688077  0.55652174
   0.87910385  0.43101154  0.55652174
   0.73628077  0.41514231  0.55652174
   0.59345769  0.39927308  0.55652174
   0.32961923  0.36995769  0.55652174
   0.18679615  0.35408846  0.55652174
   0.04397308  0.33821923  0.55652174
   0.90115000  0.32235000  0.55652174
   0.63731154  0.29303462  0.55652174
   0.49448846  0.27716538  0.55652174
   0.28576538  0.47619615  0.55652174
   0.35166538  0.26129615  0.55652174
   0.94500385  0.21611154  0.55652174
   0.80218077  0.20024231  0.55652174
   0.65935769  0.18437308  0.55652174
   0.51653462  0.16850385  0.55652174
   0.25269615  0.13918846  0.55652174
   0.10987308  0.12331923  0.55652174
   0.96705000  0.10745000  0.55652174
   0.82422692  0.09158077  0.55652174
   0.56038846  0.06226538  0.55652174
   0.41756538  0.04639615  0.55652174
   0.20884231  0.24542692  0.55652174
   0.27474231  0.03052692  0.55652174
   0.42858846  0.49206538  0.55652174
   0.71423462  0.52380385  0.55652174
   0.58243462  0.95360385  0.55652174
   0.43961154  0.93773462  0.55652174
   0.17577308  0.90841923  0.55652174
   0.03295000  0.89255000  0.55652174
   0.89012692  0.87668077  0.55652174
   0.74730385  0.86081154  0.55652174
   0.48346538  0.83149615  0.55652174
   0.34064231  0.81562692  0.55652174
   0.19781923  0.79975769  0.55652174
   0.05499615  0.78388846  0.55652174
   0.57141154  0.50793462  0.55652174
   0.79115769  0.75457308  0.55652174
   0.50551154  0.72283462  0.55652174
   0.36268846  0.70696538  0.55652174
   0.09885000  0.67765000  0.55652174
   0.95602692  0.66178077  0.55652174
   0.81320385  0.64591154  0.55652174
   0.67038077  0.63004231  0.55652174
   0.40654231  0.60072692  0.55652174
   0.26371923  0.58485769  0.55652174
   0.12089615  0.56898846  0.55652174
   0.97807308  0.55311923  0.55652174
   0.64833462  0.73870385  0.55652174
   0.13191923  0.01465769  0.55652174
   0.11726154  0.98534231  0.40869565
   0.24421538  0.96947308  0.40869565
   0.55190769  0.43101154  0.40869565
   0.67886154  0.41514231  0.40869565
   0.80581538  0.39927308  0.40869565
   0.04033846  0.36995769  0.40869565
   0.16729231  0.35408846  0.40869565
   0.29424615  0.33821923  0.40869565
   0.42120000  0.32235000  0.40869565
   0.65572308  0.29303462  0.40869565
   0.78267692  0.27716538  0.40869565
   0.90963077  0.26129615  0.40869565
   0.42495385  0.44688077  0.40869565
   0.03658462  0.24542692  0.40869565
   0.39806154  0.20024231  0.40869565
   0.52501538  0.18437308  0.40869565
   0.65196923  0.16850385  0.40869565
   0.88649231  0.13918846  0.40869565
   0.01344615  0.12331923  0.40869565
   0.14040000  0.10745000  0.40869565
   0.26735385  0.09158077  0.40869565
   0.50187692  0.06226538  0.40869565
   0.62883077  0.04639615  0.40869565
   0.75578462  0.03052692  0.40869565
   0.27110769  0.21611154  0.40869565
   0.19043077  0.47619615  0.40869565
   0.06347692  0.49206538  0.40869565
   0.93652308  0.50793462  0.40869565
   0.37116923  0.95360385  0.40869565
   0.49812308  0.93773462  0.40869565
   0.73264615  0.90841923  0.40869565
   0.85960000  0.89255000  0.40869565
   0.98655385  0.87668077  0.40869565
   0.11350769  0.86081154  0.40869565
   0.34803077  0.83149615  0.40869565
   0.47498462  0.81562692  0.40869565
   0.60193846  0.79975769  0.40869565
   0.72889231  0.78388846  0.40869565
   0.96341538  0.75457308  0.40869565
   0.09036923  0.73870385  0.40869565
   0.21732308  0.72283462  0.40869565
   0.34427692  0.70696538  0.40869565
   0.57880000  0.67765000  0.40869565
   0.70575385  0.66178077  0.40869565
   0.83270769  0.64591154  0.40869565
   0.95966154  0.63004231  0.40869565
   0.19418462  0.60072692  0.40869565
   0.32113846  0.58485769  0.40869565
   0.44809231  0.56898846  0.40869565
   0.57504615  0.55311923  0.40869565
   0.80956923  0.52380385  0.40869565
   0.72525769  0.96947308  0.55652174
   0.86808077  0.98534231  0.55652174
unknown system                          
           1
    11.359686    0.003970   -0.000000
    -5.726732   12.596833    0.000000
    -0.000000   -0.000000   22.997477
   B 
 104
Direct configuration=     2
   0.88406228  0.01451867  0.40868200
   0.02346838  0.44691246  0.55652072
   0.87459721  0.43033386  0.55651845
   0.74076417  0.41579722  0.55653070
   0.59195863  0.39925965  0.55651830
   0.33115773  0.36997152  0.55652819
   0.18225873  0.35341001  0.55649753
   0.04849565  0.33889372  0.55653297
   0.89963306  0.32232181  0.55651829
   0.63887713  0.29309215  0.55652872
   0.48994422  0.27648012  0.55650358
   0.28424957  0.47617881  0.55653347
   0.35614719  0.26195883  0.55652868
   0.94654893  0.21614028  0.55653111
   0.79772381  0.19956884  0.55650302
   0.66378079  0.18501791  0.55653292
   0.51502605  0.16845943  0.55652299
   0.25424389  0.13921609  0.55653186
   0.10534964  0.12263121  0.55648984
   0.97155185  0.10813495  0.55651576
   0.82270163  0.09154738  0.55652215
   0.56194751  0.06233444  0.55652979
   0.41312625  0.04573934  0.55650933
   0.20737194  0.24542690  0.55653577
   0.27915775  0.03119091  0.55650923
   0.43314599  0.49274156  0.55652061
   0.71575043  0.52382119  0.55653347
   0.58687375  0.95426066  0.55650933
   0.43805249  0.93766556  0.55652979
   0.17729837  0.90845262  0.55652215
   0.02844815  0.89186505  0.55651576
   0.89465036  0.87736879  0.55648984
   0.74575611  0.86078391  0.55653186
   0.48497395  0.83154057  0.55652299
   0.33621921  0.81498209  0.55653292
   0.20227619  0.80043116  0.55650302
   0.05345107  0.78385972  0.55653111
   0.56685401  0.50725844  0.55652061
   0.79262806  0.75457310  0.55653577
   0.51005578  0.72351988  0.55650358
   0.36112287  0.70690785  0.55652872
   0.10036694  0.67767819  0.55651829
   0.95150435  0.66110628  0.55653297
   0.81774127  0.64658999  0.55649753
   0.66884227  0.63002848  0.55652819
   0.40804137  0.60074035  0.55651830
   0.25923583  0.58420278  0.55653070
   0.12540279  0.56966614  0.55651845
   0.97653163  0.55308754  0.55652072
   0.64385281  0.73804117  0.55652868
   0.13040859  0.01463552  0.55653620
   0.11593772  0.98548133  0.40868200
   0.24808822  0.96898758  0.40870878
   0.55585750  0.43050690  0.40869998
   0.67490952  0.41561226  0.40868927
   0.80714205  0.39913287  0.40869731
   0.03897539  0.37009570  0.40868906
   0.17128070  0.35359472  0.40872018
   0.29027709  0.33871232  0.40868220
   0.42253311  0.32220341  0.40869756
   0.65437776  0.29321708  0.40868900
   0.78664960  0.27665990  0.40871058
   0.90569844  0.26178480  0.40868960
   0.42360296  0.44703143  0.40869718
   0.03789181  0.24529891  0.40868301
   0.40196521  0.19974770  0.40871460
   0.52111491  0.18483871  0.40868474
   0.65327485  0.16833936  0.40869419
   0.88511946  0.13934209  0.40868877
   0.01740209  0.12281430  0.40872684
   0.13646374  0.10795367  0.40870123
   0.26868883  0.09142323  0.40869552
   0.50055537  0.06245873  0.40868625
   0.63272589  0.04591018  0.40870647
   0.75191178  0.03101242  0.40870878
   0.26975536  0.21626356  0.40868669
   0.19177081  0.47605115  0.40868259
   0.05948011  0.49255896  0.40869839
   0.94051989  0.50744104  0.40869839
   0.36727411  0.95408982  0.40870647
   0.49944463  0.93754127  0.40868625
   0.73131117  0.90857677  0.40869552
   0.86353626  0.89204633  0.40870123
   0.98259791  0.87718570  0.40872684
   0.11488055  0.86065791  0.40868877
   0.34672515  0.83166064  0.40869419
   0.47888509  0.81516129  0.40868474
   0.59803479  0.80025230  0.40871460
   0.73024464  0.78373644  0.40868669
   0.96210819  0.75470109  0.40868301
   0.09430156  0.73821520  0.40868960
   0.21335040  0.72334010  0.40871058
   0.34562224  0.70678292  0.40868900
   0.57746689  0.67779659  0.40869756
   0.70972291  0.66128768  0.40868220
   0.82871930  0.64640528  0.40872018
   0.96102461  0.62990430  0.40868906
   0.19285795  0.60086713  0.40869731
   0.32509048  0.58438774  0.40868927
   0.44414250  0.56949310  0.40869998
   0.57639704  0.55296857  0.40869718
   0.80822919  0.52394885  0.40868259
   0.72084225  0.96880909  0.55650923
   0.86959141  0.98536448  0.55653620
unknown system                          
           1
    11.826220    0.005946   -0.000000
    -5.959796   12.775307    0.000000
    -0.000000   -0.000000   22.996221
   B 
 104
Direct configuration=     3
   0.88466481  0.01445126  0.40867520
   0.02417255  0.44692756  0.55652021
   0.87253063  0.43000683  0.55651681
   0.74281983  0.41611324  0.55653517
   0.59127405  0.39925338  0.55651658
   0.33186032  0.36997798  0.55653141
   0.18017809  0.35308262  0.55648548
   0.05056946  0.33921920  0.55653856
   0.89894012  0.32230840  0.55651657
   0.63959268  0.29311975  0.55653220
   0.48786038  0.27614943  0.55649454
   0.28355729  0.47617064  0.55653932
   0.35820222  0.26227860  0.55653214
   0.94725472  0.21615395  0.55653577
   0.79567997  0.19924385  0.55649370
   0.66580878  0.18532907  0.55653848
   0.51433671  0.16843817  0.55652361
   0.25495088  0.13922922  0.55653690
   0.10327525  0.12229919  0.55647396
   0.97361633  0.10846549  0.55651278
   0.82200481  0.09153146  0.55652235
   0.56266022  0.06236761  0.55653380
   0.41109077  0.04542240  0.55650315
   0.20670063  0.24542710  0.55654275
   0.28118251  0.03151133  0.55650301
   0.43523579  0.49306784  0.55652005
   0.71644271  0.52382936  0.55653932
   0.58890923  0.95457760  0.55650315
   0.43733979  0.93763239  0.55653380
   0.17799519  0.90846854  0.55652235
   0.02638367  0.89153451  0.55651278
   0.89672475  0.87770081  0.55647396
   0.74504912  0.86077078  0.55653690
   0.48566329  0.83156183  0.55652361
   0.33419122  0.81467093  0.55653848
   0.20432003  0.80075615  0.55649370
   0.05274528  0.78384605  0.55653577
   0.56476421  0.50693216  0.55652005
   0.79329937  0.75457290  0.55654275
   0.51213962  0.72385057  0.55649454
   0.36040732  0.70688025  0.55653220
   0.10105988  0.67769160  0.55651657
   0.94943054  0.66078080  0.55653856
   0.81982191  0.64691738  0.55648548
   0.66813968  0.63002202  0.55653141
   0.40872595  0.60074662  0.55651658
   0.25718017  0.58388676  0.55653517
   0.12746937  0.56999317  0.55651681
   0.97582745  0.55307244  0.55652021
   0.64179778  0.73772140  0.55653214
   0.12971861  0.01462502  0.55654339
   0.11533519  0.98554874  0.40867520
   0.24984989  0.96875228  0.40871531
   0.55765405  0.43026233  0.40870213
   0.67311150  0.41584007  0.40868609
   0.80774587  0.39906488  0.40869814
   0.03835492  0.37016263  0.40868577
   0.17309500  0.35335541  0.40873239
   0.28847160  0.33895132  0.40867550
   0.42313979  0.32213234  0.40869851
   0.65376599  0.29330550  0.40868569
   0.78845658  0.27641491  0.40871802
   0.90390966  0.26202164  0.40868659
   0.42298823  0.44710448  0.40869795
   0.03848690  0.24523683  0.40867672
   0.40374083  0.19950799  0.40872403
   0.51934037  0.18506442  0.40867930
   0.65386873  0.16825965  0.40869347
   0.88449473  0.13941657  0.40868535
   0.01920142  0.12256959  0.40874237
   0.13467337  0.10819777  0.40870401
   0.26929622  0.09134687  0.40869545
   0.49995460  0.06255241  0.40868156
   0.63449771  0.04567465  0.40871186
   0.75015011  0.03124772  0.40871531
   0.26913998  0.21633726  0.40868223
   0.19238067  0.47598085  0.40867609
   0.05766195  0.49279819  0.40869976
   0.94233805  0.50720181  0.40869976
   0.36550229  0.95432535  0.40871186
   0.50004540  0.93744759  0.40868156
   0.73070378  0.90865313  0.40869545
   0.86532663  0.89180223  0.40870401
   0.98079858  0.87743041  0.40874237
   0.11550527  0.86058343  0.40868535
   0.34613127  0.83174035  0.40869347
   0.48065963  0.81493558  0.40867930
   0.59625917  0.80049201  0.40872403
   0.73086002  0.78366274  0.40868223
   0.96151310  0.75476317  0.40867672
   0.09609034  0.73797836  0.40868659
   0.21154342  0.72358509  0.40871802
   0.34623401  0.70669450  0.40868569
   0.57686021  0.67786766  0.40869851
   0.71152840  0.66104868  0.40867550
   0.82690500  0.64664459  0.40873239
   0.96164508  0.62983737  0.40868577
   0.19225413  0.60093512  0.40869814
   0.32688850  0.58415993  0.40868609
   0.44234595  0.56973767  0.40870213
   0.57701177  0.55289552  0.40869795
   0.80761933  0.52401915  0.40867609
   0.71881749  0.96848867  0.55650301
   0.87028139  0.98537498  0.55654339
unknown system                          
           1
    12.045532    0.006875   -0.000000
    -6.069357   12.859206    0.000000
    -0.000000   -0.000000   22.995630
   B 
 104
Direct configuration=     4
   0.88493646  0.01441998  0.40867201
   0.02449059  0.44693451  0.55651997
   0.87159560  0.42985538  0.55651604
   0.74374987  0.41625959  0.55653726
   0.59096492  0.39925051  0.55651578
   0.33217759  0.36998093  0.55653292
   0.17923670  0.35293100  0.55647982
   0.05150775  0.33936994  0.55654118
   0.89862717  0.32230223  0.55651576
   0.63991592  0.29313250  0.55653383
   0.48691753  0.27599628  0.55649029
   0.28324466  0.47616690  0.55654206
   0.35913200  0.26242669  0.55653376
   0.94757348  0.21616025  0.55653796
   0.79475522  0.19909334  0.55648932
   0.66672630  0.18547317  0.55654110
   0.51402534  0.16842836  0.55652390
   0.25527017  0.13923526  0.55653927
   0.10233666  0.12214542  0.55646650
   0.97455044  0.10861857  0.55651138
   0.82169010  0.09152412  0.55652245
   0.56298221  0.06238293  0.55653569
   0.41016984  0.04527562  0.55650025
   0.20639753  0.24542723  0.55654603
   0.28209862  0.03165972  0.55650008
   0.43618129  0.49321895  0.55651979
   0.71675534  0.52383310  0.55654206
   0.58983016  0.95472438  0.55650025
   0.43701779  0.93761707  0.55653569
   0.17830990  0.90847588  0.55652245
   0.02544956  0.89138143  0.55651138
   0.89766334  0.87785458  0.55646650
   0.74472983  0.86076474  0.55653927
   0.48597466  0.83157164  0.55652390
   0.33327370  0.81452683  0.55654110
   0.20524478  0.80090666  0.55648932
   0.05242652  0.78383975  0.55653796
   0.56381871  0.50678105  0.55651979
   0.79360247  0.75457277  0.55654603
   0.51308247  0.72400372  0.55649029
   0.36008408  0.70686750  0.55653383
   0.10137283  0.67769777  0.55651576
   0.94849225  0.66063006  0.55654118
   0.82076330  0.64706900  0.55647982
   0.66782241  0.63001907  0.55653292
   0.40903508  0.60074949  0.55651578
   0.25625013  0.58374041  0.55653726
   0.12840440  0.57014462  0.55651604
   0.97550941  0.55306549  0.55651997
   0.64086800  0.73757331  0.55653376
   0.12940702  0.01462019  0.55654678
   0.11506354  0.98558002  0.40867201
   0.25064390  0.96864310  0.40871838
   0.55846375  0.43014885  0.40870314
   0.67230103  0.41594577  0.40868459
   0.80801810  0.39903333  0.40869853
   0.03807518  0.37019369  0.40868423
   0.17391276  0.35324436  0.40873812
   0.28765782  0.33906221  0.40867236
   0.42341329  0.32209936  0.40869895
   0.65349029  0.29334653  0.40868414
   0.78927099  0.27630124  0.40872151
   0.90310341  0.26213153  0.40868517
   0.42271110  0.44713837  0.40869831
   0.03875522  0.24520801  0.40867377
   0.40454112  0.19939676  0.40872847
   0.51854049  0.18516915  0.40867675
   0.65413640  0.16822266  0.40869312
   0.88421310  0.13945113  0.40868374
   0.02001239  0.12245604  0.40874967
   0.13386645  0.10831102  0.40870532
   0.26957000  0.09131144  0.40869542
   0.49968390  0.06259587  0.40867936
   0.63529631  0.04556536  0.40871439
   0.74935610  0.03135690  0.40871838
   0.26886257  0.21637146  0.40868014
   0.19265560  0.47594822  0.40867304
   0.05684246  0.49290919  0.40870040
   0.94315754  0.50709081  0.40870040
   0.36470369  0.95443464  0.40871439
   0.50031610  0.93740413  0.40867936
   0.73042999  0.90868856  0.40869542
   0.86613355  0.89168898  0.40870532
   0.97998761  0.87754396  0.40874967
   0.11578690  0.86054887  0.40868374
   0.34586360  0.83177734  0.40869312
   0.48145951  0.81483085  0.40867675
   0.59545888  0.80060324  0.40872847
   0.73113743  0.78362854  0.40868014
   0.96124478  0.75479198  0.40867377
   0.09689659  0.73786847  0.40868517
   0.21072901  0.72369876  0.40872151
   0.34650971  0.70665347  0.40868414
   0.57658671  0.67790064  0.40869895
   0.71234218  0.66093779  0.40867236
   0.82608724  0.64675564  0.40873812
   0.96192482  0.62980631  0.40868423
   0.19198190  0.60096667  0.40869853
   0.32769897  0.58405423  0.40868459
   0.44153625  0.56985115  0.40870314
   0.57728890  0.55286163  0.40869831
   0.80734439  0.52405178  0.40867304
   0.71790138  0.96834028  0.55650008
   0.87059298  0.98537981  0.55654678
unknown system                          
           1
    12.400878    0.009500   -0.000000
    -6.245590   12.839916    0.000000
    -0.000000   -0.000000   22.994552
   B 
 104
Direct configuration=     5
   0.88290339  0.01497381  0.40863572
   0.02193775  0.44637878  0.55652139
   0.87488710  0.42996783  0.55651403
   0.74045620  0.41608450  0.55654699
   0.59346858  0.39975438  0.55651338
   0.32969805  0.36947693  0.55654760
   0.18257176  0.35311475  0.55645150
   0.04813888  0.33921376  0.55656248
   0.90118262  0.32285349  0.55651634
   0.63741861  0.29263420  0.55655231
   0.49020337  0.27616692  0.55647648
   0.28575161  0.47666406  0.55656013
   0.35581394  0.26227439  0.55654791
   0.94502236  0.21563386  0.55657164
   0.79801208  0.19921702  0.55647103
   0.66348092  0.18531769  0.55655127
   0.51655210  0.16893807  0.55652682
   0.25276998  0.13871228  0.55656494
   0.10569614  0.12233193  0.55642866
   0.97118359  0.10844998  0.55650508
   0.82421751  0.09206120  0.55653278
   0.56047892  0.06188301  0.55655674
   0.41338623  0.04542072  0.55648867
   0.20895090  0.24592613  0.55656981
   0.27885243  0.03152480  0.55648803
   0.43283004  0.49304426  0.55652384
   0.71424839  0.52333594  0.55656013
   0.58661377  0.95457928  0.55648867
   0.43952108  0.93811699  0.55655674
   0.17578249  0.90793880  0.55653278
   0.02881641  0.89155002  0.55650508
   0.89430386  0.87766807  0.55642866
   0.74723002  0.86128772  0.55656494
   0.48344790  0.83106193  0.55652682
   0.33651908  0.81468231  0.55655127
   0.20198792  0.80078298  0.55647103
   0.05497764  0.78436614  0.55657164
   0.56716996  0.50695574  0.55652384
   0.79104910  0.75407387  0.55656980
   0.50979663  0.72383308  0.55647648
   0.36258139  0.70736580  0.55655231
   0.09881738  0.67714651  0.55651634
   0.95186112  0.66078624  0.55656248
   0.81742824  0.64688525  0.55645150
   0.67030195  0.63052307  0.55654760
   0.40653142  0.60024562  0.55651338
   0.25954380  0.58391550  0.55654699
   0.12511290  0.57003217  0.55651403
   0.97806225  0.55362122  0.55652139
   0.64418606  0.73772561  0.55654791
   0.13197071  0.01513468  0.55658468
   0.11709661  0.98502619  0.40863572
   0.24754378  0.96876398  0.40873130
   0.55531950  0.43026241  0.40870622
   0.67539831  0.41578116  0.40867501
   0.80603734  0.39957702  0.40870188
   0.04003673  0.36964900  0.40866896
   0.17078148  0.35342257  0.40876434
   0.29082903  0.33891124  0.40865249
   0.42141933  0.32267880  0.40869824
   0.65546978  0.29281315  0.40866645
   0.78619714  0.27645567  0.40873263
   0.90622665  0.26198685  0.40866856
   0.42469214  0.44655525  0.40869530
   0.03671739  0.24574619  0.40865020
   0.40142659  0.19951252  0.40874818
   0.52160250  0.18502146  0.40866710
   0.65212998  0.16876209  0.40868800
   0.88617085  0.13889791  0.40865938
   0.01687044  0.12263031  0.40878891
   0.13702701  0.10815431  0.40870932
   0.26759953  0.09187894  0.40868463
   0.50167307  0.06206645  0.40865673
   0.63226143  0.04570609  0.40872599
   0.75245622  0.03123602  0.40873130
   0.27088287  0.21581844  0.40864665
   0.19066520  0.47648839  0.40865517
   0.05997545  0.49274780  0.40870034
   0.94002455  0.50725220  0.40870034
   0.36773857  0.95429391  0.40872599
   0.49832693  0.93793355  0.40865672
   0.73240047  0.90812106  0.40868463
   0.86297299  0.89184569  0.40870932
   0.98312956  0.87736969  0.40878891
   0.11382915  0.86110209  0.40865938
   0.34787002  0.83123791  0.40868800
   0.47839750  0.81497854  0.40866710
   0.59857341  0.80048748  0.40874818
   0.72911713  0.78418156  0.40864665
   0.96328261  0.75425381  0.40865020
   0.09377335  0.73801315  0.40866856
   0.21380286  0.72354433  0.40873263
   0.34453022  0.70718685  0.40866645
   0.57858067  0.67732120  0.40869824
   0.70917097  0.66108876  0.40865249
   0.82921852  0.64657743  0.40876434
   0.95996327  0.63035100  0.40866896
   0.19396266  0.60042298  0.40870188
   0.32460169  0.58421884  0.40867501
   0.44468050  0.56973759  0.40870622
   0.57530786  0.55344475  0.40869530
   0.80933480  0.52351161  0.40865517
   0.72114757  0.96847520  0.55648803
   0.86802929  0.98486532  0.55658468
unknown system                          
           1
    12.573881    0.010778   -0.000000
    -6.331391   12.830524    0.000000
    -0.000000   -0.000000   22.994028
   B 
 104
Direct configuration=     6
   0.88194606  0.01524404  0.40861805
   0.02072655  0.44610804  0.55652208
   0.87644435  0.43002236  0.55651305
   0.73889746  0.41599942  0.55655173
   0.59465615  0.39999984  0.55651222
   0.32852189  0.36923141  0.55655475
   0.18415013  0.35320405  0.55643771
   0.04654473  0.33913791  0.55657285
   0.90239501  0.32312205  0.55651663
   0.63623409  0.29239145  0.55656131
   0.49175837  0.27624983  0.55646976
   0.28694068  0.47690625  0.55656893
   0.35424384  0.26220043  0.55655481
   0.94381220  0.21537743  0.55658804
   0.79955303  0.19927704  0.55646212
   0.66194516  0.18524217  0.55655622
   0.51775062  0.16918637  0.55652824
   0.25158392  0.13845750  0.55657744
   0.10728608  0.12242256  0.55641023
   0.96959030  0.10836807  0.55650200
   0.82541654  0.09232284  0.55653781
   0.55929156  0.06163947  0.55656700
   0.41490821  0.04549118  0.55648304
   0.21016193  0.24616916  0.55658138
   0.27731644  0.03145930  0.55648216
   0.43124408  0.49295939  0.55652581
   0.71305932  0.52309375  0.55656893
   0.58509179  0.95450882  0.55648304
   0.44070844  0.93836053  0.55656700
   0.17458346  0.90767716  0.55653781
   0.03040970  0.89163193  0.55650200
   0.89271392  0.87757744  0.55641023
   0.74841608  0.86154250  0.55657744
   0.48224938  0.83081363  0.55652824
   0.33805484  0.81475783  0.55655622
   0.20044697  0.80072296  0.55646212
   0.05618780  0.78462257  0.55658804
   0.56875592  0.50704061  0.55652581
   0.78983807  0.75383084  0.55658138
   0.50824163  0.72375017  0.55646976
   0.36376591  0.70760855  0.55656131
   0.09760499  0.67687795  0.55651663
   0.95345527  0.66086209  0.55657285
   0.81584987  0.64679595  0.55643771
   0.67147811  0.63076859  0.55655475
   0.40534385  0.60000016  0.55651221
   0.26110254  0.58400058  0.55655173
   0.12355565  0.56997764  0.55651305
   0.97927345  0.55389196  0.55652208
   0.64575616  0.73779957  0.55655481
   0.13318673  0.01538531  0.55660313
   0.11805394  0.98475596  0.40861805
   0.24607872  0.96882320  0.40873759
   0.55383352  0.43031807  0.40870772
   0.67686171  0.41570062  0.40867035
   0.80510468  0.39984229  0.40870351
   0.04096031  0.36938324  0.40866152
   0.16930211  0.35350973  0.40877710
   0.29232748  0.33883735  0.40864281
   0.42048068  0.32296150  0.40869789
   0.65640193  0.29255291  0.40865783
   0.78474475  0.27653124  0.40873805
   0.90770247  0.26191603  0.40866048
   0.42562465  0.44627075  0.40869384
   0.03575769  0.24600878  0.40863873
   0.39995469  0.19956923  0.40875778
   0.52304933  0.18494917  0.40866240
   0.65118514  0.16902528  0.40868550
   0.88709257  0.13862799  0.40864752
   0.01538599  0.12271556  0.40880802
   0.13852039  0.10807761  0.40871127
   0.26667189  0.09215582  0.40867937
   0.50260982  0.06180814  0.40864570
   0.63082736  0.04577498  0.40873163
   0.75392128  0.03117680  0.40873759
   0.27183416  0.21554861  0.40863034
   0.18972794  0.47675195  0.40864647
   0.06145575  0.49266883  0.40870030
   0.93854425  0.50733117  0.40870030
   0.36917264  0.95422502  0.40873163
   0.49739018  0.93819186  0.40864570
   0.73332811  0.90784418  0.40867937
   0.86147961  0.89192239  0.40871127
   0.98461401  0.87728444  0.40880802
   0.11290743  0.86137201  0.40864752
   0.34881486  0.83097472  0.40868550
   0.47695067  0.81505083  0.40866240
   0.60004531  0.80043077  0.40875778
   0.72816584  0.78445139  0.40863034
   0.96424231  0.75399122  0.40863873
   0.09229753  0.73808397  0.40866048
   0.21525525  0.72346876  0.40873805
   0.34359807  0.70744709  0.40865783
   0.57951932  0.67703850  0.40869789
   0.70767252  0.66116265  0.40864281
   0.83069789  0.64649027  0.40877710
   0.95903969  0.63061676  0.40866152
   0.19489532  0.60015771  0.40870351
   0.32313829  0.58429938  0.40867034
   0.44616648  0.56968193  0.40870772
   0.57437535  0.55372925  0.40869384
   0.81027206  0.52324805  0.40864647
   0.72268356  0.96854070  0.55648216
   0.86681327  0.98461469  0.55660313
unknown system                          
           1
    12.580089    0.013856   -0.000000
    -6.331305   12.747345    0.000000
    -0.000000    0.000000   22.987569
   B 
 104
Direct configuration=     7
   0.87997457  0.01572067  0.40857358
   0.01837110  0.44570468  0.55652886
   0.87598640  0.42982245  0.55650155
   0.73937396  0.41621267  0.55656121
   0.59700800  0.40040665  0.55650597
   0.32618903  0.36881771  0.55656684
   0.18367751  0.35301988  0.55639144
   0.04700040  0.33935584  0.55658806
   0.90476682  0.32352105  0.55651692
   0.63388794  0.29197562  0.55658713
   0.49127954  0.27605069  0.55643689
   0.28928926  0.47731826  0.55658690
   0.35471977  0.26241679  0.55657379
   0.94142912  0.21495756  0.55663277
   0.79911469  0.19908422  0.55642297
   0.66239556  0.18546585  0.55656240
   0.52014736  0.16960216  0.55653517
   0.24921247  0.13803531  0.55661030
   0.10683572  0.12222888  0.55634703
   0.97005083  0.10858743  0.55647907
   0.82779490  0.09272727  0.55655167
   0.55691840  0.06122566  0.55660275
   0.41446408  0.04527527  0.55644900
   0.21257643  0.24657427  0.55660308
   0.27775184  0.03166737  0.55645742
   0.43176209  0.49316644  0.55652908
   0.71071074  0.52268174  0.55658690
   0.58553592  0.95472473  0.55644900
   0.44308160  0.93877434  0.55660275
   0.17220510  0.90727273  0.55655167
   0.02994917  0.89141257  0.55647907
   0.89316428  0.87777112  0.55634703
   0.75078753  0.86196469  0.55661030
   0.47985264  0.83039784  0.55653517
   0.33760444  0.81453415  0.55656240
   0.20088531  0.80091578  0.55642297
   0.05857088  0.78504244  0.55663277
   0.56823791  0.50683356  0.55652908
   0.78742357  0.75342573  0.55660308
   0.50872046  0.72394931  0.55643689
   0.36611206  0.70802438  0.55658713
   0.09523318  0.67647895  0.55651692
   0.95299960  0.66064416  0.55658806
   0.81632249  0.64698012  0.55639144
   0.67381097  0.63118229  0.55656684
   0.40299200  0.59959335  0.55650597
   0.26062604  0.58378733  0.55656121
   0.12401360  0.57017755  0.55650155
   0.98162890  0.55429532  0.55652886
   0.64528023  0.73758321  0.55657379
   0.13560990  0.01580400  0.55664667
   0.12002543  0.98427933  0.40857358
   0.24626784  0.96856179  0.40876072
   0.55405221  0.43006258  0.40871868
   0.67663578  0.41596523  0.40866114
   0.80318387  0.40030548  0.40871318
   0.04284744  0.36891324  0.40864812
   0.16955154  0.35327617  0.40882142
   0.29213378  0.33910999  0.40862684
   0.41852822  0.32341319  0.40869803
   0.65830533  0.29207903  0.40863424
   0.78498354  0.27628568  0.40877061
   0.90749220  0.26218667  0.40864122
   0.42754561  0.44581009  0.40868779
   0.03377241  0.24646798  0.40861534
   0.40016384  0.19932354  0.40879959
   0.52285596  0.18521432  0.40865620
   0.64922792  0.16948735  0.40867795
   0.88901010  0.13814806  0.40861372
   0.01559431  0.12246961  0.40887227
   0.13832523  0.10834782  0.40873498
   0.26472090  0.09261965  0.40866579
   0.50455245  0.06134524  0.40860915
   0.63103229  0.04551066  0.40876514
   0.75373216  0.03143821  0.40876072
   0.27377637  0.21506871  0.40858727
   0.18781335  0.47722018  0.40862706
   0.06119003  0.49292259  0.40869723
   0.93880997  0.50707741  0.40869723
   0.36896771  0.95448934  0.40876514
   0.49544755  0.93865476  0.40860915
   0.73527910  0.90738035  0.40866579
   0.86167477  0.89165218  0.40873498
   0.98440569  0.87753039  0.40887227
   0.11098990  0.86185194  0.40861372
   0.35077208  0.83051265  0.40867795
   0.47714404  0.81478568  0.40865620
   0.59983616  0.80067646  0.40879959
   0.72622363  0.78493129  0.40858727
   0.96622759  0.75353202  0.40861534
   0.09250780  0.73781333  0.40864122
   0.21501646  0.72371432  0.40877061
   0.34169467  0.70792097  0.40863424
   0.58147178  0.67658681  0.40869803
   0.70786622  0.66089001  0.40862684
   0.83044846  0.64672383  0.40882142
   0.95715256  0.63108676  0.40864812
   0.19681613  0.59969452  0.40871318
   0.32336422  0.58403477  0.40866113
   0.44594779  0.56993742  0.40871868
   0.57245439  0.55418991  0.40868779
   0.81218665  0.52277982  0.40862706
   0.72224816  0.96833263  0.55645742
   0.86439010  0.98419600  0.55664667
unknown system                          
           1
    12.598711    0.023089   -0.000000
    -6.331046   12.497807    0.000000
    -0.000000    0.000000   22.968193
   B 
 104
Direct configuration=     8
   0.87406841  0.01716133  0.40844013
   0.01130511  0.44448841  0.55654921
   0.87461145  0.42921916  0.55646704
   0.74080468  0.41685626  0.55658966
   0.60406320  0.40163334  0.55648722
   0.31919066  0.36757020  0.55660312
   0.18225870  0.35246413  0.55625258
   0.04836874  0.34001359  0.55663370
   0.91188177  0.32472413  0.55651779
   0.62684975  0.29072166  0.55666461
   0.48984200  0.27544972  0.55633828
   0.29633470  0.47856064  0.55664082
   0.35614880  0.26306976  0.55663077
   0.93428018  0.21369148  0.55676701
   0.79779858  0.19850228  0.55630547
   0.66374813  0.18614096  0.55658096
   0.52733723  0.17085592  0.55655598