  392  392  100    2
  0.2820828E+02  0.1605371E-08  0.3100313E-08  0.2300000E-08  0.1000000E-15
  1.000000000000000E-004
  CAR 
 unknown system                          
   1176     14   1320
 
  0.0000000E+00  0.0000000E+00  0.0000000E+00  0.3703704E-01
    1      -15.992090    -15.992090   1.000000   1.000000
    2      -15.829834    -15.829834   1.000000   1.000000
    3      -15.729121    -15.729121   1.000000   1.000000
    4      -15.646161    -15.646161   1.000000   1.000000
    5      -15.612029    -15.612029   1.000000   1.000000
    6      -15.532168    -15.532168   1.000000   1.000000
    7      -15.493025    -15.493025   1.000000   1.000000
    8      -15.446580    -15.446580   1.000000   1.000000
    9      -15.432765    -15.432765   1.000000   1.000000
   10      -15.405422    -15.405422   1.000000   1.000000
   11      -15.402025    -15.402025   1.000000   1.000000
   12      -15.378001    -15.378001   1.000000   1.000000
   13      -15.356909    -15.356909   1.000000   1.000000
   14      -15.319337    -15.319337   1.000000   1.000000
   15      -15.296250    -15.296250   1.000000   1.000000
   16      -15.286147    -15.286147   1.000000   1.000000
   17      -15.281980    -15.281980   1.000000   1.000000
   18      -15.272828    -15.272828   1.000000   1.000000
   19      -15.270755    -15.270755   1.000000   1.000000
   20      -15.244703    -15.244703   1.000000   1.000000
   21      -15.182121    -15.182121   1.000000   1.000000
   22      -15.179226    -15.179226   1.000000   1.000000
   23      -15.177428    -15.177428   1.000000   1.000000
   24      -15.149804    -15.149804   1.000000   1.000000
   25      -15.141472    -15.141472   1.000000   1.000000
   26      -15.122803    -15.122803   1.000000   1.000000
   27      -15.111252    -15.111252   1.000000   1.000000
   28      -15.108842    -15.108842   1.000000   1.000000
   29      -15.004839    -15.004839   1.000000   1.000000
   30      -15.000327    -15.000327   1.000000   1.000000
   31      -14.999869    -14.999869   1.000000   1.000000
   32      -14.993533    -14.993533   1.000000   1.000000
   33      -14.960425    -14.960425   1.000000   1.000000
   34      -14.955507    -14.955507   1.000000   1.000000
   35      -14.925062    -14.925062   1.000000   1.000000
   36      -14.920960    -14.920960   1.000000   1.000000
   37      -14.919887    -14.919887   1.000000   1.000000
   38      -14.906053    -14.906053   1.000000   1.000000
   39      -14.895525    -14.895525   1.000000   1.000000
   40      -14.885881    -14.885881   1.000000   1.000000
   41      -14.833715    -14.833715   1.000000   1.000000
   42      -14.818127    -14.818127   1.000000   1.000000
   43      -14.773551    -14.773551   1.000000   1.000000
   44      -14.760523    -14.760523   1.000000   1.000000
   45      -14.684282    -14.684282   1.000000   1.000000
   46      -14.646163    -14.646163   1.000000   1.000000
   47      -14.585122    -14.585122   1.000000   1.000000
   48      -14.580277    -14.580277   1.000000   1.000000
   49      -14.502489    -14.502489   1.000000   1.000000
   50      -14.500460    -14.500460   1.000000   1.000000
   51      -14.462196    -14.462196   1.000000   1.000000
   52      -14.420969    -14.420969   1.000000   1.000000
   53      -14.410248    -14.410248   1.000000   1.000000
   54      -14.404974    -14.404974   1.000000   1.000000
   55      -14.374516    -14.374516   1.000000   1.000000
   56      -14.363549    -14.363549   1.000000   1.000000
   57      -14.354711    -14.354711   1.000000   1.000000
   58      -14.344758    -14.344758   1.000000   1.000000
   59      -14.325847    -14.325847   1.000000   1.000000
   60      -14.295203    -14.295203   1.000000   1.000000
   61      -14.284714    -14.284714   1.000000   1.000000
   62      -14.280643    -14.280643   1.000000   1.000000
   63      -14.265051    -14.265051   1.000000   1.000000
   64      -14.264592    -14.264592   1.000000   1.000000
   65      -14.241930    -14.241930   1.000000   1.000000
   66      -14.237790    -14.237790   1.000000   1.000000
   67      -14.228465    -14.228465   1.000000   1.000000
   68      -14.221547    -14.221547   1.000000   1.000000
   69      -13.970425    -13.970425   1.000000   1.000000
   70      -13.962171    -13.962171   1.000000   1.000000
   71      -13.940243    -13.940243   1.000000   1.000000
   72      -13.925286    -13.925286   1.000000   1.000000
   73      -13.912621    -13.912621   1.000000   1.000000
   74      -13.899616    -13.899616   1.000000   1.000000
   75      -13.832027    -13.832027   1.000000   1.000000
   76      -13.814356    -13.814356   1.000000   1.000000
   77      -13.759557    -13.759557   1.000000   1.000000
   78      -13.750932    -13.750932   1.000000   1.000000
   79      -13.579164    -13.579164   1.000000   1.000000
   80      -13.578212    -13.578212   1.000000   1.000000
   81      -13.573934    -13.573934   1.000000   1.000000
   82      -13.564212    -13.564212   1.000000   1.000000
   83      -13.303502    -13.303502   1.000000   1.000000
   84      -13.302620    -13.302620   1.000000   1.000000
   85      -13.302406    -13.302406   1.000000   1.000000
   86      -13.288020    -13.288020   1.000000   1.000000
   87      -13.027151    -13.027151   1.000000   1.000000
   88      -13.022762    -13.022762   1.000000   1.000000
   89      -13.017719    -13.017719   1.000000   1.000000
   90      -13.011847    -13.011847   1.000000   1.000000
   91      -12.879754    -12.879754   1.000000   1.000000
   92      -12.832946    -12.832946   1.000000   1.000000
   93      -12.831285    -12.831285   1.000000   1.000000
   94      -12.811610    -12.811610   1.000000   1.000000
   95      -12.808528    -12.808528   1.000000   1.000000
   96      -12.804617    -12.804617   1.000000   1.000000
   97      -12.736452    -12.736452   1.000000   1.000000
   98      -12.723211    -12.723211   1.000000   1.000000
   99      -12.721187    -12.721187   1.000000   1.000000
  100      -12.715598    -12.715598   1.000000   1.000000
  101      -12.684517    -12.684517   1.000000   1.000000
  102      -12.680476    -12.680476   1.000000   1.000000
  103      -12.448651    -12.448651   1.000000   1.000000
  104      -12.399748    -12.399748   1.000000   1.000000
  105      -12.382612    -12.382612   1.000000   1.000000
  106      -12.376450    -12.376450   1.000000   1.000000
  107      -12.371761    -12.371761   1.000000   1.000000
  108      -12.301388    -12.301388   1.000000   1.000000
  109      -12.281863    -12.281863   1.000000   1.000000
  110      -12.265775    -12.265775   1.000000   1.000000
  111      -12.264291    -12.264291   1.000000   1.000000
  112      -12.085467    -12.085467   1.000000   1.000000
  113      -12.052518    -12.052518   1.000000   1.000000
  114      -12.037895    -12.037895   1.000000   1.000000
  115      -12.020556    -12.020556   1.000000   1.000000
  116      -11.948627    -11.948627   1.000000   1.000000
  117      -11.916464    -11.916464   1.000000   1.000000
  118      -11.809390    -11.809390   1.000000   1.000000
  119      -11.778774    -11.778774   1.000000   1.000000
  120      -11.748893    -11.748893   1.000000   1.000000
  121      -11.733238    -11.733238   1.000000   1.000000
  122      -11.713313    -11.713313   1.000000   1.000000
  123      -11.689152    -11.689152   1.000000   1.000000
  124      -11.627205    -11.627205   1.000000   1.000000
  125      -11.611650    -11.611650   1.000000   1.000000
  126      -11.525896    -11.525896   1.000000   1.000000
  127      -11.506430    -11.506430   1.000000   1.000000
  128      -11.439428    -11.439428   1.000000   1.000000
  129      -11.427030    -11.427030   1.000000   1.000000
  130      -11.401410    -11.401410   1.000000   1.000000
  131      -11.396756    -11.396756   1.000000   1.000000
  132      -11.396124    -11.396124   1.000000   1.000000
  133      -11.378318    -11.378318   1.000000   1.000000
  134      -11.365071    -11.365071   1.000000   1.000000
  135      -11.345180    -11.345180   1.000000   1.000000
  136      -11.264649    -11.264649   1.000000   1.000000
  137      -11.210993    -11.210993   1.000000   1.000000
  138      -11.173372    -11.173372   1.000000   1.000000
  139      -11.167176    -11.167176   1.000000   1.000000
  140      -11.126832    -11.126832   1.000000   1.000000
  141      -11.097580    -11.097580   1.000000   1.000000
  142      -11.086502    -11.086502   1.000000   1.000000
  143      -11.082504    -11.082504   1.000000   1.000000
  144      -11.072705    -11.072705   1.000000   1.000000
  145      -11.063017    -11.063017   1.000000   1.000000
  146      -11.056733    -11.056733   1.000000   1.000000
  147      -11.048838    -11.048838   1.000000   1.000000
  148      -11.036564    -11.036564   1.000000   1.000000
  149      -11.013183    -11.013183   1.000000   1.000000
  150      -11.011023    -11.011023   1.000000   1.000000
  151      -10.968501    -10.968501   1.000000   1.000000
  152      -10.961747    -10.961747   1.000000   1.000000
  153      -10.926850    -10.926850   1.000000   1.000000
  154      -10.887464    -10.887464   1.000000   1.000000
  155      -10.879758    -10.879758   1.000000   1.000000
  156      -10.877345    -10.877345   1.000000   1.000000
  157      -10.842520    -10.842520   1.000000   1.000000
  158      -10.841743    -10.841743   1.000000   1.000000
  159      -10.838030    -10.838030   1.000000   1.000000
  160      -10.827377    -10.827377   1.000000   1.000000
  161      -10.819398    -10.819398   1.000000   1.000000
  162      -10.819057    -10.819057   1.000000   1.000000
  163      -10.797093    -10.797093   1.000000   1.000000
  164      -10.777171    -10.777171   1.000000   1.000000
  165      -10.749558    -10.749558   1.000000   1.000000
  166      -10.743820    -10.743820   1.000000   1.000000
  167      -10.715338    -10.715338   1.000000   1.000000
  168      -10.689845    -10.689845   1.000000   1.000000
  169      -10.665939    -10.665939   1.000000   1.000000
  170      -10.565667    -10.565667   1.000000   1.000000
  171      -10.479778    -10.479778   1.000000   1.000000
  172      -10.428351    -10.428351   1.000000   1.000000
  173      -10.376040    -10.376040   1.000000   1.000000
  174      -10.353320    -10.353320   1.000000   1.000000
  175      -10.344981    -10.344981   1.000000   1.000000
  176      -10.303635    -10.303635   1.000000   1.000000
  177      -10.251178    -10.251178   1.000000   1.000000
  178      -10.213188    -10.213188   1.000000   1.000000
  179      -10.032036    -10.032036   1.000000   1.000000
  180       -9.993311     -9.993311   1.000000   1.000000
  181       -9.859365     -9.859365   1.000000   1.000000
  182       -9.822605     -9.822605   1.000000   1.000000
  183       -9.822369     -9.822369   1.000000   1.000000
  184       -9.756012     -9.756012   1.000000   1.000000
  185       -9.755726     -9.755726   1.000000   1.000000
  186       -9.732388     -9.732388   1.000000   1.000000
  187       -9.683027     -9.683027   1.000000   1.000000
  188       -9.619017     -9.619017   1.000000   1.000000
  189       -9.488471     -9.488471   1.000000   1.000000
  190       -9.483744     -9.483744   1.000000   1.000000
  191       -9.472230     -9.472230   1.000000   1.000000
  192       -9.435362     -9.435362   1.000000   1.000000
  193       -9.427710     -9.427710   1.000000   1.000000
  194       -9.417052     -9.417052   1.000000   1.000000
  195       -9.394680     -9.394680   1.000000   1.000000
  196       -9.386976     -9.386976   1.000000   1.000000
  197       -9.381212     -9.381212   1.000000   1.000000
  198       -9.368068     -9.368068   1.000000   1.000000
  199       -9.291593     -9.291593   1.000000   1.000000
  200       -9.271070     -9.271070   1.000000   1.000000
  201       -9.249716     -9.249716   1.000000   1.000000
  202       -9.228858     -9.228858   1.000000   1.000000
  203       -9.212009     -9.212009   1.000000   1.000000
  204       -9.208369     -9.208369   1.000000   1.000000
  205       -9.200956     -9.200956   1.000000   1.000000
  206       -9.163996     -9.163996   1.000000   1.000000
  207       -9.097833     -9.097833   1.000000   1.000000
  208       -9.045946     -9.045946   1.000000   1.000000
  209       -9.004221     -9.004221   1.000000   1.000000
  210       -8.992801     -8.992801   1.000000   1.000000
  211       -8.959162     -8.959162   1.000000   1.000000
  212       -8.917168     -8.917168   1.000000   1.000000
  213       -8.907378     -8.907378   1.000000   1.000000
  214       -8.883526     -8.883526   1.000000   1.000000
  215       -8.860960     -8.860960   1.000000   1.000000
  216       -8.837944     -8.837944   1.000000   1.000000
  217       -8.831428     -8.831428   1.000000   1.000000
  218       -8.782043     -8.782043   1.000000   1.000000
  219       -8.775533     -8.775533   1.000000   1.000000
  220       -8.746015     -8.746015   1.000000   1.000000
  221       -8.734822     -8.734822   1.000000   1.000000
  222       -8.732068     -8.732068   1.000000   1.000000
  223       -8.721178     -8.721178   1.000000   1.000000
  224       -8.681050     -8.681050   1.000000   1.000000
  225       -8.666518     -8.666518   1.000000   1.000000
  226       -8.608825     -8.608825   1.000000   1.000000
  227       -8.607001     -8.607001   1.000000   1.000000
  228       -8.564508     -8.564508   1.000000   1.000000
  229       -8.533385     -8.533385   1.000000   1.000000
  230       -8.452584     -8.452584   1.000000   1.000000
  231       -8.434194     -8.434194   1.000000   1.000000
  232       -8.431251     -8.431251   1.000000   1.000000
  233       -8.389477     -8.389477   1.000000   1.000000
  234       -8.374298     -8.374298   1.000000   1.000000
  235       -8.370486     -8.370486   1.000000   1.000000
  236       -8.363279     -8.363279   1.000000   1.000000
  237       -8.347855     -8.347855   1.000000   1.000000
  238       -8.306695     -8.306695   1.000000   1.000000
  239       -8.294379     -8.294379   1.000000   1.000000
  240       -8.253018     -8.253018   1.000000   1.000000
  241       -8.199474     -8.199474   1.000000   1.000000
  242       -8.186074     -8.186074   1.000000   1.000000
  243       -8.148450     -8.148450   1.000000   1.000000
  244       -8.131288     -8.131288   1.000000   1.000000
  245       -8.128797     -8.128797   1.000000   1.000000
  246       -8.112735     -8.112735   1.000000   1.000000
  247       -8.098770     -8.098770   1.000000   1.000000
  248       -8.093825     -8.093825   1.000000   1.000000
  249       -8.072893     -8.072893   1.000000   1.000000
  250       -8.060469     -8.060469   1.000000   1.000000
  251       -8.048308     -8.048308   1.000000   1.000000
  252       -8.044154     -8.044154   1.000000   1.000000
  253       -8.005286     -8.005286   1.000000   1.000000
  254       -7.997747     -7.997747   1.000000   1.000000
  255       -7.922549     -7.922549   1.000000   1.000000
  256       -7.879461     -7.879461   1.000000   1.000000
  257       -7.875215     -7.875215   1.000000   1.000000
  258       -7.868639     -7.868639   1.000000   1.000000
  259       -7.849886     -7.849886   1.000000   1.000000
  260       -7.819926     -7.819926   1.000000   1.000000
  261       -7.799778     -7.799778   1.000000   1.000000
  262       -7.791375     -7.791375   1.000000   1.000000
  263       -7.782352     -7.782352   1.000000   1.000000
  264       -7.752365     -7.752365   1.000000   1.000000
  265       -7.660823     -7.660823   1.000000   1.000000
  266       -7.656781     -7.656781   1.000000   1.000000
  267       -7.590062     -7.590062   1.000000   1.000000
  268       -7.566196     -7.566196   1.000000   1.000000
  269       -7.562210     -7.562210   1.000000   1.000000
  270       -7.556851     -7.556851   1.000000   1.000000
  271       -7.556219     -7.556219   1.000000   1.000000
  272       -7.533268     -7.533268   1.000000   1.000000
  273       -7.513620     -7.513620   1.000000   1.000000
  274       -7.474307     -7.474307   1.000000   1.000000
  275       -7.468901     -7.468901   1.000000   1.000000
  276       -7.460047     -7.460047   1.000000   1.000000
  277       -7.453054     -7.453054   1.000000   1.000000
  278       -7.438959     -7.438959   1.000000   1.000000
  279       -7.434193     -7.434193   1.000000   1.000000
  280       -7.416778     -7.416778   1.000000   1.000000
  281       -7.415979     -7.415979   1.000000   1.000000
  282       -7.395415     -7.395415   1.000000   1.000000
  283       -7.387685     -7.387685   1.000000   1.000000
  284       -7.381628     -7.381628   1.000000   1.000000
  285       -7.349357     -7.349357   1.000000   1.000000
  286       -7.323481     -7.323481   1.000000   1.000000
  287       -7.269370     -7.269370   1.000000   1.000000
  288       -7.237129     -7.237129   1.000000   1.000000
  289       -7.231541     -7.231541   1.000000   1.000000
  290       -7.227094     -7.227094   1.000000   1.000000
  291       -7.225432     -7.225432   1.000000   1.000000
  292       -7.209276     -7.209276   1.000000   1.000000
  293       -7.164438     -7.164438   1.000000   1.000000
  294       -7.153184     -7.153184   1.000000   1.000000
  295       -7.130155     -7.130155   1.000000   1.000000
  296       -7.117816     -7.117816   1.000000   1.000000
  297       -7.100551     -7.100551   1.000000   1.000000
  298       -7.056388     -7.056388   1.000000   1.000000
  299       -7.049392     -7.049392   1.000000   1.000000
  300       -7.036952     -7.036952   1.000000   1.000000
  301       -7.010507     -7.010507   1.000000   1.000000
  302       -7.009950     -7.009950   1.000000   1.000000
  303       -7.002996     -7.002996   1.000000   1.000000
  304       -6.983700     -6.983700   1.000000   1.000000
  305       -6.976849     -6.976849   1.000000   1.000000
  306       -6.950946     -6.950946   1.000000   1.000000
  307       -6.925468     -6.925468   1.000000   1.000000
  308       -6.914574     -6.914574   1.000000   1.000000
  309       -6.908707     -6.908707   1.000000   1.000000
  310       -6.873989     -6.873989   1.000000   1.000000
  311       -6.868547     -6.868547   1.000000   1.000000
  312       -6.833685     -6.833685   1.000000   1.000000
  313       -6.814383     -6.814383   1.000000   1.000000
  314       -6.778196     -6.778196   1.000000   1.000000
  315       -6.777993     -6.777993   1.000000   1.000000
  316       -6.766516     -6.766516   1.000000   1.000000
  317       -6.759903     -6.759903   1.000000   1.000000
  318       -6.738032     -6.738032   1.000000   1.000000
  319       -6.736924     -6.736924   1.000000   1.000000
  320       -6.730689     -6.730689   1.000000   1.000000
  321       -6.722611     -6.722611   1.000000   1.000000
  322       -6.709663     -6.709663   1.000000   1.000000
  323       -6.703365     -6.703365   1.000000   1.000000
  324       -6.703184     -6.703184   1.000000   1.000000
  325       -6.699533     -6.699533   1.000000   1.000000
  326       -6.679732     -6.679732   1.000000   1.000000
  327       -6.674217     -6.674217   1.000000   1.000000
  328       -6.666245     -6.666245   1.000000   1.000000
  329       -6.654302     -6.654302   1.000000   1.000000
  330       -6.650337     -6.650337   1.000000   1.000000
  331       -6.630233     -6.630233   1.000000   1.000000
  332       -6.609939     -6.609939   1.000000   1.000000
  333       -6.596732     -6.596732   1.000000   1.000000
  334       -6.594615     -6.594615   1.000000   1.000000
  335       -6.585735     -6.585735   1.000000   1.000000
  336       -6.500218     -6.500218   1.000000   1.000000
  337       -6.482333     -6.482333   1.000000   1.000000
  338       -6.481436     -6.481436   1.000000   1.000000
  339       -6.453327     -6.453327   1.000000   1.000000
  340       -6.446334     -6.446334   1.000000   1.000000
  341       -6.439291     -6.439291   1.000000   1.000000
  342       -6.435114     -6.435114   1.000000   1.000000
  343       -6.426079     -6.426079   1.000000   1.000000
  344       -6.396052     -6.396052   1.000000   1.000000
  345       -6.390293     -6.390293   1.000000   1.000000
  346       -6.382457     -6.382457   1.000000   1.000000
  347       -6.378125     -6.378125   1.000000   1.000000
  348       -6.369425     -6.369425   1.000000   1.000000
  349       -6.316935     -6.316935   1.000000   1.000000
  350       -6.285841     -6.285841   1.000000   1.000000
  351       -6.277072     -6.277072   1.000000   1.000000
  352       -6.262867     -6.262867   1.000000   1.000000
  353       -6.232561     -6.232561   1.000000   1.000000
  354       -6.224741     -6.224741   1.000000   1.000000
  355       -6.205456     -6.205456   1.000000   1.000000
  356       -6.197170     -6.197170   1.000000   1.000000
  357       -6.188382     -6.188382   1.000000   1.000000
  358       -6.185198     -6.185198   1.000000   1.000000
  359       -6.163681     -6.163681   1.000000   1.000000
  360       -6.141669     -6.141669   1.000000   1.000000
  361       -6.132855     -6.132855   1.000000   1.000000
  362       -6.108674     -6.108674   1.000000   1.000000
  363       -6.084988     -6.084988   1.000000   1.000000
  364       -6.063868     -6.063868   1.000000   1.000000
  365       -6.058414     -6.058414   1.000000   1.000000
  366       -6.043419     -6.043419   1.000000   1.000000
  367       -6.036891     -6.036891   1.000000   1.000000
  368       -6.031495     -6.031495   1.000000   1.000000
  369       -6.030210     -6.030210   1.000000   1.000000
  370       -6.004277     -6.004277   1.000000   1.000000
  371       -5.981489     -5.981489   1.000000   1.000000
  372       -5.973700     -5.973700   1.000000   1.000000
  373       -5.925872     -5.925872   1.000000   1.000000
  374       -5.916923     -5.916923   1.000000   1.000000
  375       -5.879147     -5.879147   1.000000   1.000000
  376       -5.872891     -5.872891   1.000000   1.000000
  377       -5.855782     -5.855782   1.000000   1.000000
  378       -5.833872     -5.833872   1.000000   1.000000
  379       -5.826251     -5.826251   1.000000   1.000000
  380       -5.817343     -5.817343   1.000000   1.000000
  381       -5.808384     -5.808384   1.000000   1.000000
  382       -5.798966     -5.798966   1.000000   1.000000
  383       -5.779463     -5.779463   1.000000   1.000000
  384       -5.722332     -5.722332   1.000000   1.000000
  385       -5.708708     -5.708708   1.000000   1.000000
  386       -5.705919     -5.705919   1.000000   1.000000
  387       -5.686477     -5.686477   1.000000   1.000000
  388       -5.666999     -5.666999   1.000000   1.000000
  389       -5.650898     -5.650898   1.000000   1.000000
  390       -5.643800     -5.643800   1.000000   1.000000
  391       -5.638158     -5.638158   1.000000   1.000000
  392       -5.629627     -5.629627   1.000000   1.000000
  393       -5.620574     -5.620574   1.000000   1.000000
  394       -5.596369     -5.596369   1.000000   1.000000
  395       -5.585860     -5.585860   1.000000   1.000000
  396       -5.569629     -5.569629   1.000000   1.000000
  397       -5.561930     -5.561930   1.000000   1.000000
  398       -5.555729     -5.555729   1.000000   1.000000
  399       -5.521000     -5.521000   1.000000   1.000000
  400       -5.507559     -5.507559   1.000000   1.000000
  401       -5.481161     -5.481161   1.000000   1.000000
  402       -5.473957     -5.473957   1.000000   1.000000
  403       -5.434441     -5.434441   1.000000   1.000000
  404       -5.386653     -5.386653   1.000000   1.000000
  405       -5.361286     -5.361286   1.000000   1.000000
  406       -5.349264     -5.349264   1.000000   1.000000
  407       -5.337864     -5.337864   1.000000   1.000000
  408       -5.337358     -5.337358   1.000000   1.000000
  409       -5.319514     -5.319514   1.000000   1.000000
  410       -5.311680     -5.311680   1.000000   1.000000
  411       -5.289632     -5.289632   1.000000   1.000000
  412       -5.284120     -5.284120   1.000000   1.000000
  413       -5.281159     -5.281159   1.000000   1.000000
  414       -5.267204     -5.267204   1.000000   1.000000
  415       -5.257809     -5.257809   1.000000   1.000000
  416       -5.244347     -5.244347   1.000000   1.000000
  417       -5.241341     -5.241341   1.000000   1.000000
  418       -5.235297     -5.235297   1.000000   1.000000
  419       -5.220924     -5.220924   1.000000   1.000000
  420       -5.206961     -5.206961   1.000000   1.000000
  421       -5.192013     -5.192013   1.000000   1.000000
  422       -5.182085     -5.182085   1.000000   1.000000
  423       -5.177475     -5.177475   1.000000   1.000000
  424       -5.169360     -5.169360   1.000000   1.000000
  425       -5.144938     -5.144938   1.000000   1.000000
  426       -5.121944     -5.121944   1.000000   1.000000
  427       -5.117661     -5.117661   1.000000   1.000000
  428       -5.104578     -5.104578   1.000000   1.000000
  429       -5.077922     -5.077922   1.000000   1.000000
  430       -5.075199     -5.075199   1.000000   1.000000
  431       -5.074615     -5.074615   1.000000   1.000000
  432       -5.051770     -5.051770   1.000000   1.000000
  433       -5.048641     -5.048641   1.000000   1.000000
  434       -5.046892     -5.046892   1.000000   1.000000
  435       -5.034043     -5.034043   1.000000   1.000000
  436       -5.019372     -5.019372   1.000000   1.000000
  437       -5.019241     -5.019241   1.000000   1.000000
  438       -4.991908     -4.991908   1.000000   1.000000
  439       -4.974660     -4.974660   1.000000   1.000000
  440       -4.971101     -4.971101   1.000000   1.000000
  441       -4.967782     -4.967782   1.000000   1.000000
  442       -4.934954     -4.934954   1.000000   1.000000
  443       -4.925703     -4.925703   1.000000   1.000000
  444       -4.917553     -4.917553   1.000000   1.000000
  445       -4.898544     -4.898544   1.000000   1.000000
  446       -4.894510     -4.894510   1.000000   1.000000
  447       -4.869545     -4.869545   1.000000   1.000000
  448       -4.860539     -4.860539   1.000000   1.000000
  449       -4.839340     -4.839340   1.000000   1.000000
  450       -4.809550     -4.809550   1.000000   1.000000
  451       -4.806217     -4.806217   1.000000   1.000000
  452       -4.801062     -4.801062   1.000000   1.000000
  453       -4.785989     -4.785989   1.000000   1.000000
  454       -4.783491     -4.783491   1.000000   1.000000
  455       -4.770168     -4.770168   1.000000   1.000000
  456       -4.742050     -4.742050   1.000000   1.000000
  457       -4.731196     -4.731196   1.000000   1.000000
  458       -4.722314     -4.722314   1.000000   1.000000
  459       -4.719093     -4.719093   1.000000   1.000000
  460       -4.716970     -4.716970   1.000000   1.000000
  461       -4.701348     -4.701348   1.000000   1.000000
  462       -4.684702     -4.684702   1.000000   1.000000
  463       -4.657667     -4.657667   1.000000   1.000000
  464       -4.642395     -4.642395   1.000000   1.000000
  465       -4.639718     -4.639718   1.000000   1.000000
  466       -4.603924     -4.603924   1.000000   1.000000
  467       -4.585890     -4.585890   1.000000   1.000000
  468       -4.562713     -4.562713   1.000000   1.000000
  469       -4.555643     -4.555643   1.000000   1.000000
  470       -4.538675     -4.538675   1.000000   1.000000
  471       -4.532367     -4.532367   1.000000   1.000000
  472       -4.529286     -4.529286   1.000000   1.000000
  473       -4.521990     -4.521990   1.000000   1.000000
  474       -4.514123     -4.514123   1.000000   1.000000
  475       -4.495091     -4.495091   1.000000   1.000000
  476       -4.457357     -4.457357   1.000000   1.000000
  477       -4.456269     -4.456269   1.000000   1.000000
  478       -4.439384     -4.439384   1.000000   1.000000
  479       -4.407915     -4.407915   1.000000   1.000000
  480       -4.375600     -4.375600   1.000000   1.000000
  481       -4.345588     -4.345588   1.000000   1.000000
  482       -4.329266     -4.329266   1.000000   1.000000
  483       -4.295705     -4.295705   1.000000   1.000000
  484       -4.288842     -4.288842   1.000000   1.000000
  485       -4.284240     -4.284240   1.000000   1.000000
  486       -4.270344     -4.270344   1.000000   1.000000
  487       -4.257546     -4.257546   1.000000   1.000000
  488       -4.238545     -4.238545   1.000000   1.000000
  489       -4.204748     -4.204748   1.000000   1.000000
  490       -4.188229     -4.188229   1.000000   1.000000
  491       -4.152763     -4.152763   1.000000   1.000000
  492       -4.140013     -4.140013   1.000000   1.000000
  493       -4.127874     -4.127874   1.000000   1.000000
  494       -4.105588     -4.105588   1.000000   1.000000
  495       -3.853474     -3.853474   1.000000   1.000000
  496       -3.827090     -3.827090   1.000000   1.000000
  497       -3.810647     -3.810647   1.000000   1.000000
  498       -3.761483     -3.761483   1.000000   1.000000
  499       -3.752779     -3.752779   1.000000   1.000000
  500       -3.725381     -3.725381   1.000000   1.000000
  501       -3.704367     -3.704367   1.000000   1.000000
  502       -3.693788     -3.693788   1.000000   1.000000
  503       -3.642530     -3.642530   1.000000   1.000000
  504       -3.621819     -3.621819   1.000000   1.000000
  505       -3.601625     -3.601625   1.000000   1.000000
  506       -3.585863     -3.585863   1.000000   1.000000
  507       -3.569563     -3.569563   1.000000   1.000000
  508       -3.546600     -3.546600   1.000000   1.000000
  509       -3.546507     -3.546507   1.000000   1.000000
  510       -3.539096     -3.539096   1.000000   1.000000
  511       -3.501026     -3.501026   1.000000   1.000000
  512       -3.493635     -3.493635   1.000000   1.000000