       N       E                     dE             d eps       ncg     rms          rms(c)
DAV:   1     0.578030055939E+04    0.57803E+04   -0.40851E+05 73920   0.566E+02
DAV:   2    -0.197374980585E+04   -0.77541E+04   -0.75053E+04 86240   0.164E+02
DAV:   3    -0.252117346226E+04   -0.54742E+03   -0.53895E+03 98560   0.432E+01
DAV:   4    -0.252889284605E+04   -0.77194E+01   -0.77019E+01 98560   0.566E+00
DAV:   5    -0.252904075511E+04   -0.14791E+00   -0.14790E+00120560   0.748E-01    0.127E+02
RMM:   6    -0.142737052069E+04    0.11017E+04   -0.76375E+02 73920   0.161E+01    0.753E+01
RMM:   7    -0.131453157992E+04    0.11284E+03   -0.32238E+02 73971   0.109E+01    0.412E+01
RMM:   8    -0.121860742879E+04    0.95924E+02   -0.61449E+01 74308   0.536E+00    0.320E+01
RMM:   9    -0.129435661962E+04   -0.75749E+02   -0.15517E+01 74317   0.252E+00    0.275E+01
RMM:  10    -0.147206609188E+04   -0.17771E+03   -0.11656E+02 74181   0.554E+00    0.214E+01
RMM:  11    -0.167346815399E+04   -0.20140E+03   -0.13802E+02 74098   0.578E+00    0.157E+01
RMM:  12    -0.195453180035E+04   -0.28106E+03   -0.28163E+02 73967   0.630E+00    0.118E+01
RMM:  13    -0.199115497543E+04   -0.36623E+02   -0.21553E+01 73924   0.185E+00    0.110E+01
RMM:  14    -0.200496743141E+04   -0.13812E+02   -0.16826E+01 73920   0.180E+00    0.747E+00
RMM:  15    -0.204249598907E+04   -0.37529E+02   -0.15940E+01 73940   0.132E+00    0.544E+00
RMM:  16    -0.205779592018E+04   -0.15300E+02   -0.12938E+00 73926   0.611E-01    0.443E+00
RMM:  17    -0.206265796257E+04   -0.48620E+01   -0.69220E-01 73920   0.414E-01    0.356E+00
RMM:  18    -0.206678247151E+04   -0.41245E+01   -0.18889E-01 73920   0.237E-01    0.294E+00
RMM:  19    -0.206930513145E+04   -0.25227E+01   -0.19257E-01 73920   0.201E-01    0.298E+00
RMM:  20    -0.206970083348E+04   -0.39570E+00   -0.36814E-01 73920   0.232E-01    0.183E+00
RMM:  21    -0.207248847324E+04   -0.27876E+01   -0.35958E-01 73920   0.180E-01    0.108E+00
RMM:  22    -0.207501488669E+04   -0.25264E+01   -0.43455E-02 73920   0.101E-01    0.634E-01
RMM:  23    -0.207880499993E+04   -0.37901E+01   -0.52909E-02 73920   0.125E-01    0.271E-01
RMM:  24    -0.207952078177E+04   -0.71578E+00   -0.53632E-03 73920   0.458E-02    0.170E-01
RMM:  25    -0.207967534488E+04   -0.15456E+00   -0.13741E-03 74150   0.219E-02    0.120E-01
RMM:  26    -0.207978933129E+04   -0.11399E+00   -0.17211E-03 73920   0.227E-02    0.694E-02
RMM:  27    -0.207985497422E+04   -0.65643E-01   -0.15587E-03 73920   0.189E-02    0.420E-02
RMM:  28    -0.207986792195E+04   -0.12948E-01   -0.60063E-04 73920   0.133E-02    0.265E-02
RMM:  29    -0.207987232680E+04   -0.44049E-02   -0.23817E-04 73780   0.820E-03    0.170E-02
RMM:  30    -0.207987469459E+04   -0.23678E-02   -0.41805E-05 61245   0.351E-03    0.115E-02
RMM:  31    -0.207987677353E+04   -0.20789E-02   -0.18390E-05 60727   0.253E-03    0.744E-03
RMM:  32    -0.207987839885E+04   -0.16253E-02   -0.13640E-05 60125   0.162E-03    0.468E-03
RMM:  33    -0.207987920926E+04   -0.81041E-03   -0.80067E-06 58732   0.109E-03    0.238E-03
RMM:  34    -0.207987947770E+04   -0.26844E-03   -0.20257E-06 53711   0.766E-04    0.117E-03
RMM:  35    -0.207987957394E+04   -0.96242E-04   -0.50250E-07 44456   0.439E-04    0.665E-04
RMM:  36    -0.207987960036E+04   -0.26419E-04   -0.22233E-07 42633   0.348E-04    0.301E-04
RMM:  37    -0.207987960712E+04   -0.67624E-05   -0.38966E-08 39025   0.283E-04
   1 F= -.20989548E+04 E0= -.20988944E+04  d E =-.209895E+04  mag=     0.0000
       N       E                     dE             d eps       ncg     rms          rms(c)
DAV:   1    -0.233790550124E+04   -0.25803E+03   -0.13643E+03 98560   0.272E+01    0.211E+01
RMM:   2    -0.233227236579E+04    0.56331E+01   -0.31488E+01 73920   0.303E+00    0.122E+01
RMM:   3    -0.232854054659E+04    0.37318E+01   -0.66931E+00 73920   0.131E+00    0.173E+00
RMM:   4    -0.232849102651E+04    0.49520E-01   -0.24370E-01 75657   0.264E-01    0.830E-01
RMM:   5    -0.232854302902E+04   -0.52003E-01   -0.50838E-02 74966   0.114E-01    0.719E-01
RMM:   6    -0.232850916317E+04    0.33866E-01   -0.61455E-03 74895   0.357E-02    0.397E-01
RMM:   7    -0.232851311761E+04   -0.39544E-02   -0.42807E-03 74578   0.391E-02    0.167E-01
RMM:   8    -0.232852221530E+04   -0.90977E-02   -0.17526E-03 73931   0.212E-02    0.129E-01
RMM:   9    -0.232852697780E+04   -0.47625E-02   -0.72402E-04 73920   0.126E-02    0.783E-02
RMM:  10    -0.232853520014E+04   -0.82223E-02   -0.20842E-03 73920   0.184E-02    0.547E-02
RMM:  11    -0.232854018838E+04   -0.49882E-02   -0.88622E-04 73920   0.113E-02    0.733E-02
RMM:  12    -0.232854207802E+04   -0.18896E-02   -0.31369E-04 73907   0.666E-03    0.354E-02
RMM:  13    -0.232854473698E+04   -0.26590E-02   -0.33502E-04 73881   0.656E-03    0.263E-02
RMM:  14    -0.232854836370E+04   -0.36267E-02   -0.85826E-04 73920   0.927E-03    0.142E-02
RMM:  15    -0.232854892983E+04   -0.56613E-03   -0.60597E-05 61455   0.289E-03    0.771E-03
RMM:  16    -0.232854942964E+04   -0.49981E-03   -0.25781E-05 60813   0.242E-03    0.568E-03
RMM:  17    -0.232854968924E+04   -0.25960E-03   -0.95386E-06 60384   0.126E-03    0.350E-03
RMM:  18    -0.232854974453E+04   -0.55290E-04   -0.14168E-06 53000   0.605E-04    0.199E-03
RMM:  19    -0.232854982736E+04   -0.82829E-04   -0.22587E-06 55194   0.735E-04    0.144E-03
RMM:  20    -0.232854984760E+04   -0.20244E-04   -0.69525E-07 41868   0.400E-04    0.972E-04
RMM:  21    -0.232854986114E+04   -0.13542E-04   -0.12502E-07 40436   0.342E-04    0.608E-04
RMM:  22    -0.232854988893E+04   -0.27789E-04   -0.57220E-07 49845   0.470E-04    0.669E-04
RMM:  23    -0.232854990004E+04   -0.11109E-04   -0.47259E-09 35727   0.241E-04    0.328E-04
RMM:  24    -0.232854991322E+04   -0.13180E-04   -0.16608E-07 39562   0.321E-04    0.275E-04
RMM:  25    -0.232854991730E+04   -0.40791E-05   -0.13681E-08 35222   0.273E-04
   2 F= -.23453682E+04 E0= -.23453147E+04  d E =-.246413E+03  mag=    -0.0008
       N       E                     dE             d eps       ncg     rms          rms(c)
DAV:   1    -0.236833913439E+04   -0.39789E+02   -0.30588E+02 98560   0.126E+01    0.958E+00
RMM:   2    -0.236685246124E+04    0.14867E+01   -0.48302E+00 73920   0.141E+00    0.537E+00
RMM:   3    -0.236603410115E+04    0.81836E+00   -0.12122E+00 73920   0.559E-01    0.852E-01
RMM:   4    -0.236602247357E+04    0.11628E-01   -0.56171E-02 75335   0.124E-01    0.346E-01
RMM:   5    -0.236603433015E+04   -0.11857E-01   -0.82645E-03 74155   0.474E-02    0.248E-01
RMM:   6    -0.236603205073E+04    0.22794E-02   -0.87972E-04 75354   0.146E-02    0.147E-01
RMM:   7    -0.236603660431E+04   -0.45536E-02   -0.12433E-03 74464   0.184E-02    0.552E-02
RMM:   8    -0.236603954445E+04   -0.29401E-02   -0.30661E-04 73916   0.765E-03    0.400E-02
RMM:   9    -0.236604516651E+04   -0.56221E-02   -0.11147E-03 73920   0.123E-02    0.242E-02
RMM:  10    -0.236604716648E+04   -0.20000E-02   -0.27262E-04 73895   0.592E-03    0.182E-02
RMM:  11    -0.236604906669E+04   -0.19002E-02   -0.20453E-04 71513   0.479E-03    0.176E-02
RMM:  12    -0.236605014421E+04   -0.10775E-02   -0.93715E-05 61757   0.318E-03    0.176E-02
RMM:  13    -0.236605102273E+04   -0.87852E-03   -0.88338E-05 61223   0.286E-03    0.775E-03
RMM:  14    -0.236605135434E+04   -0.33162E-03   -0.19821E-05 60608   0.168E-03    0.407E-03
RMM:  15    -0.236605163544E+04   -0.28110E-03   -0.83258E-06 59436   0.122E-03    0.298E-03
RMM:  16    -0.236605181945E+04   -0.18401E-03   -0.45781E-06 53397   0.811E-04    0.189E-03
RMM:  17    -0.236605186672E+04   -0.47272E-04   -0.88024E-07 46213   0.500E-04    0.948E-04
RMM:  18    -0.236605190281E+04   -0.36094E-04   -0.10657E-06 49233   0.535E-04    0.963E-04
RMM:  19    -0.236605190958E+04   -0.67669E-05   -0.12926E-07 39981   0.284E-04
   3 F= -.23819932E+04 E0= -.23819318E+04  d E =-.283038E+03  mag=    -0.0002
       N       E                     dE             d eps       ncg     rms          rms(c)
DAV:   1    -0.237034006382E+04   -0.42882E+01   -0.61261E+01 98560   0.560E+00    0.418E+00
RMM:   2    -0.237005285144E+04    0.28721E+00   -0.94990E-01 73920   0.647E-01    0.234E+00
RMM:   3    -0.236988790378E+04    0.16495E+00   -0.22696E-01 73932   0.244E-01    0.379E-01
RMM:   4    -0.236988535941E+04    0.25444E-02   -0.11610E-02 75414   0.564E-02    0.154E-01
RMM:   5    -0.236988844297E+04   -0.30836E-02   -0.14997E-03 74026   0.204E-02    0.112E-01
RMM:   6    -0.236988798686E+04    0.45612E-03   -0.18245E-04 75191   0.657E-03    0.640E-02
RMM:   7    -0.236988947635E+04   -0.14895E-02   -0.23024E-04 74203   0.760E-03    0.257E-02
RMM:   8    -0.236989022022E+04   -0.74388E-03   -0.44588E-05 61376   0.281E-03    0.204E-02
RMM:   9    -0.236989242141E+04   -0.22012E-02   -0.27997E-04 73275   0.574E-03    0.103E-02
RMM:  10    -0.236989333618E+04   -0.91476E-03   -0.86836E-05 61345   0.308E-03    0.750E-03
RMM:  11    -0.236989449837E+04   -0.11622E-02   -0.12994E-04 61638   0.328E-03    0.505E-03
RMM:  12    -0.236989486465E+04   -0.36628E-03   -0.25743E-05 60624   0.148E-03    0.408E-03
RMM:  13    -0.236989493634E+04   -0.71687E-04   -0.16706E-06 45257   0.510E-04    0.264E-03
RMM:  14    -0.236989504971E+04   -0.11337E-03   -0.24903E-06 53381   0.672E-04    0.160E-03
RMM:  15    -0.236989517041E+04   -0.12070E-03   -0.20711E-06 45229   0.584E-04    0.101E-03
RMM:  16    -0.236989520856E+04   -0.38152E-04   -0.71764E-07 45150   0.453E-04    0.559E-04
RMM:  17    -0.236989522256E+04   -0.13994E-04   -0.14347E-07 40966   0.320E-04    0.346E-04
RMM:  18    -0.236989522885E+04   -0.62981E-05   -0.16821E-07 39934   0.307E-04
   4 F= -.23854899E+04 E0= -.23854254E+04  d E =-.286535E+03  mag=    -0.0000
       N       E                     dE             d eps       ncg     rms          rms(c)
DAV:   1    -0.241990871607E+04   -0.50013E+02   -0.77889E+02 92400   0.170E+01    0.137E+01
RMM:   2    -0.241132727297E+04    0.85814E+01   -0.25541E+01 74739   0.307E+00    0.515E+00
RMM:   3    -0.241074564909E+04    0.58162E+00   -0.28254E+00 74266   0.765E-01    0.217E+00
RMM:   4    -0.241067521368E+04    0.70435E-01   -0.15372E-01 75366   0.230E-01    0.345E-01
RMM:   5    -0.241069179932E+04   -0.16586E-01   -0.12016E-02 74621   0.535E-02    0.378E-01
RMM:   6    -0.241067412659E+04    0.17673E-01   -0.13208E-03 75445   0.170E-02    0.116E-01
RMM:   7    -0.241067468476E+04   -0.55816E-03   -0.42618E-04 75134   0.103E-02    0.707E-02
RMM:   8    -0.241067561645E+04   -0.93169E-03   -0.33293E-04 75046   0.931E-03    0.299E-02
RMM:   9    -0.241067611879E+04   -0.50234E-03   -0.60092E-05 70983   0.363E-03    0.142E-02
RMM:  10    -0.241067672489E+04   -0.60610E-03   -0.34074E-05 60822   0.244E-03    0.114E-02
RMM:  11    -0.241067768382E+04   -0.95893E-03   -0.79978E-05 61235   0.290E-03    0.779E-03
RMM:  12    -0.241067788828E+04   -0.20446E-03   -0.76865E-06 58783   0.105E-03    0.740E-03
RMM:  13    -0.241067834206E+04   -0.45378E-03   -0.22732E-05 60483   0.148E-03    0.428E-03
RMM:  14    -0.241067891013E+04   -0.56807E-03   -0.46287E-05 60752   0.185E-03    0.220E-03
RMM:  15    -0.241067905853E+04   -0.14840E-03   -0.66570E-06 54113   0.787E-04    0.148E-03
RMM:  16    -0.241067915104E+04   -0.92512E-04   -0.22600E-06 48491   0.551E-04    0.983E-04
RMM:  17    -0.241067920389E+04   -0.52845E-04   -0.13280E-06 45804   0.468E-04    0.440E-04
RMM:  18    -0.241067921749E+04   -0.13602E-04   -0.21018E-07 41004   0.322E-04    0.350E-04
RMM:  19    -0.241067922474E+04   -0.72488E-05   -0.18778E-07 39020   0.306E-04
   5 F= -.24258917E+04 E0= -.24258391E+04  d E =-.404018E+02  mag=    -0.0000
       N       E                     dE             d eps       ncg     rms          rms(c)
DAV:   1    -0.241568370802E+04   -0.50045E+01   -0.12637E+02 97680   0.686E+00    0.530E+00
RMM:   2    -0.241433843445E+04    0.13453E+01   -0.40041E+00 74668   0.121E+00    0.194E+00
RMM:   3    -0.241425017749E+04    0.88257E-01   -0.43383E-01 74170   0.297E-01    0.843E-01
RMM:   4    -0.241424067647E+04    0.95010E-02   -0.25704E-02 75086   0.944E-02    0.199E-01
RMM:   5    -0.241425130498E+04   -0.10629E-01   -0.25261E-03 74602   0.227E-02    0.326E-01
RMM:   6    -0.241423743520E+04    0.13870E-01   -0.76126E-04 75299   0.120E-02    0.484E-02
RMM:   7    -0.241423766799E+04   -0.23279E-03   -0.93518E-05 74007   0.487E-03    0.320E-02
RMM:   8    -0.241423796431E+04   -0.29632E-03   -0.67750E-05 73920   0.431E-03    0.118E-02
RMM:   9    -0.241423814375E+04   -0.17944E-03   -0.10206E-05 59284   0.150E-03    0.670E-03
RMM:  10    -0.241423832030E+04   -0.17655E-03   -0.57519E-06 56878   0.104E-03    0.518E-03
RMM:  11    -0.241423869208E+04   -0.37178E-03   -0.21106E-05 60432   0.145E-03    0.287E-03
RMM:  12    -0.241423884049E+04   -0.14841E-03   -0.48127E-06 52508   0.717E-04    0.342E-03
RMM:  13    -0.241423892732E+04   -0.86831E-04   -0.21579E-06 47234   0.511E-04    0.216E-03
RMM:  14    -0.241423912631E+04   -0.19899E-03   -0.10824E-05 59768   0.941E-04    0.104E-03
RMM:  15    -0.241423916837E+04   -0.42057E-04   -0.10499E-06 42289   0.381E-04    0.734E-04
RMM:  16    -0.241423920010E+04   -0.31726E-04   -0.71420E-07 41661   0.371E-04    0.463E-04
RMM:  17    -0.241423922211E+04   -0.22016E-04   -0.45858E-07 43274   0.387E-04    0.212E-04
RMM:  18    -0.241423922677E+04   -0.46578E-05   -0.70610E-08 37994   0.302E-04
   6 F= -.24293140E+04 E0= -.24292449E+04  d E =-.438242E+02  mag=    -0.0000
       N       E                     dE             d eps       ncg     rms          rms(c)
DAV:   1    -0.242495608500E+04   -0.10717E+02   -0.12656E+02 96800   0.749E+00    0.397E+00
RMM:   2    -0.242451557469E+04    0.44051E+00   -0.19517E+00 73999   0.857E-01    0.174E+00
RMM:   3    -0.242447132699E+04    0.44248E-01   -0.27715E-01 75741   0.254E-01    0.591E-01
RMM:   4    -0.242446728479E+04    0.40422E-02   -0.16743E-02 74793   0.672E-02    0.128E-01
RMM:   5    -0.242446778597E+04   -0.50118E-03   -0.90508E-04 75641   0.155E-02    0.835E-02
RMM:   6    -0.242446764600E+04    0.13997E-03   -0.10209E-04 73567   0.454E-03    0.701E-02
RMM:   7    -0.242446734577E+04    0.30023E-03   -0.72379E-05 73756   0.400E-03    0.376E-02
RMM:   8    -0.242446732186E+04    0.23911E-04   -0.85257E-05 73451   0.472E-03    0.110E-02
RMM:   9    -0.242446732401E+04   -0.21457E-05   -0.31961E-06 53562   0.950E-04
   7 F= -.24396315E+04 E0= -.24395657E+04  d E =-.103175E+02  mag=    -0.0000
       N       E                     dE             d eps       ncg     rms          rms(c)
DAV:   1    -0.243812707650E+04   -0.13660E+02   -0.90059E+02 98560   0.202E+01    0.107E+01
RMM:   2    -0.243514849595E+04    0.29786E+01   -0.14480E+01 73955   0.233E+00    0.479E+00
RMM:   3    -0.243477284901E+04    0.37565E+00   -0.19939E+00 75372   0.687E-01    0.157E+00
RMM:   4    -0.243480060067E+04   -0.27752E-01   -0.11724E-01 74889   0.179E-01    0.815E-01
RMM:   5    -0.243479461534E+04    0.59853E-02   -0.11237E-02 75145   0.491E-02    0.751E-01
RMM:   6    -0.243474212007E+04    0.52495E-01   -0.21220E-03 75245   0.233E-02    0.196E-01
RMM:   7    -0.243474116484E+04    0.95523E-03   -0.55168E-04 74519   0.112E-02    0.126E-01
RMM:   8    -0.243474097122E+04    0.19363E-03   -0.11246E-03 74257   0.174E-02    0.415E-02
RMM:   9    -0.243474091978E+04    0.51435E-04   -0.40824E-05 71320   0.318E-03    0.204E-02
RMM:  10    -0.243474093984E+04   -0.20058E-04   -0.15926E-05 57870   0.208E-03    0.105E-02
RMM:  11    -0.243474101725E+04   -0.77409E-04   -0.11281E-05 59008   0.177E-03    0.490E-03
RMM:  12    -0.243474103122E+04   -0.13968E-04   -0.12795E-06 53617   0.640E-04    0.556E-03
RMM:  13    -0.243474104016E+04   -0.89402E-05   -0.17401E-07 39890   0.359E-04
   8 F= -.24501548E+04 E0= -.24500829E+04  d E =-.208408E+02  mag=     0.0000
       N       E                     dE             d eps       ncg     rms          rms(c)
DAV:   1    -0.243512443608E+04   -0.38340E+00   -0.21099E+01 98560   0.314E+00    0.164E+00
RMM:   2    -0.243504953770E+04    0.74898E-01   -0.30755E-01 73933   0.342E-01    0.751E-01
RMM:   3    -0.243503984740E+04    0.96903E-02   -0.44376E-02 75613   0.103E-01    0.240E-01
RMM:   4    -0.243504172586E+04   -0.18785E-02   -0.26959E-03 74828   0.266E-02    0.160E-01
RMM:   5    -0.243503947710E+04    0.22488E-02   -0.27584E-04 74906   0.771E-03    0.788E-02
RMM:   6    -0.243503910513E+04    0.37197E-03   -0.55659E-05 73339   0.371E-03    0.468E-02
RMM:   7    -0.243503897701E+04    0.12812E-03   -0.20253E-05 62150   0.213E-03    0.192E-02
RMM:   8    -0.243503896550E+04    0.11510E-04   -0.19561E-05 58494   0.246E-03    0.484E-03
RMM:   9    -0.243503896554E+04   -0.38795E-07   -0.14529E-06 53156   0.738E-04
   9 F= -.24504132E+04 E0= -.24503312E+04  d E =-.210992E+02  mag=     0.0000
       N       E                     dE             d eps       ncg     rms          rms(c)
DAV:   1    -0.243984847042E+04   -0.48095E+01   -0.12351E+02100320   0.744E+00    0.393E+00
RMM:   2    -0.243951533427E+04    0.33314E+00   -0.22312E+00 73946   0.978E-01    0.193E+00
RMM:   3    -0.243938834439E+04    0.12699E+00   -0.37070E-01 74143   0.320E-01    0.525E-01
RMM:   4    -0.243949597190E+04   -0.10763E+00   -0.19293E-02 75767   0.695E-02    0.111E+00
RMM:   5    -0.243937288535E+04    0.12309E+00   -0.41150E-03 74835   0.303E-02    0.154E-01
RMM:   6    -0.243937379095E+04   -0.90560E-03   -0.96156E-04 74855   0.163E-02    0.588E-02
RMM:   7    -0.243937441298E+04   -0.62202E-03   -0.13044E-04 73770   0.548E-03    0.570E-02
RMM:   8    -0.243937481381E+04   -0.40084E-03   -0.35694E-05 67099   0.268E-03    0.687E-02
RMM:   9    -0.243937464805E+04    0.16577E-03   -0.22020E-05 63881   0.211E-03    0.159E-02
RMM:  10    -0.243937506720E+04   -0.41916E-03   -0.17074E-05 60586   0.175E-03    0.127E-02
RMM:  11    -0.243937562116E+04   -0.55396E-03   -0.30918E-05 60766   0.201E-03    0.638E-03
RMM:  12    -0.243937606355E+04   -0.44238E-03   -0.22055E-05 60611   0.150E-03    0.507E-03
RMM:  13    -0.243937652279E+04   -0.45924E-03   -0.26398E-05 60767   0.148E-03    0.380E-03
RMM:  14    -0.243937692923E+04   -0.40644E-03   -0.30065E-05 60824   0.150E-03    0.221E-03
RMM:  15    -0.243937707586E+04   -0.14663E-03   -0.65443E-06 50542   0.739E-04    0.133E-03
RMM:  16    -0.243937714636E+04   -0.70497E-04   -0.16072E-06 47886   0.498E-04    0.951E-04
RMM:  17    -0.243937720511E+04   -0.58747E-04   -0.12808E-06 46670   0.450E-04    0.527E-04
RMM:  18    -0.243937723019E+04   -0.25082E-04   -0.54004E-07 43624   0.360E-04    0.293E-04
RMM:  19    -0.243937723632E+04   -0.61297E-05   -0.29165E-08 36883   0.272E-04
  10 F= -.24547736E+04 E0= -.24546972E+04  d E =-.436038E+01  mag=     0.0000
       N       E                     dE             d eps       ncg     rms          rms(c)
DAV:   1    -0.244072709617E+04   -0.13499E+01   -0.74300E+01106480   0.575E+00    0.308E+00
RMM:   2    -0.244050919300E+04    0.21790E+00   -0.13376E+00 73986   0.752E-01    0.151E+00
RMM:   3    -0.244041779578E+04    0.91397E-01   -0.24169E-01 74429   0.258E-01    0.261E-01
RMM:   4    -0.244041988363E+04   -0.20879E-02   -0.99231E-03 75744   0.507E-02    0.184E-01
RMM:   5    -0.244041957075E+04    0.31288E-03   -0.62565E-04 74574   0.116E-02    0.167E-01
RMM:   6    -0.244041796297E+04    0.16078E-02   -0.63644E-04 74367   0.127E-02    0.308E-02
RMM:   7    -0.244041820437E+04   -0.24141E-03   -0.40877E-05 69757   0.321E-03    0.258E-02
RMM:   8    -0.244041836989E+04   -0.16552E-03   -0.15651E-05 60283   0.192E-03    0.108E-02
RMM:   9    -0.244041872255E+04   -0.35266E-03   -0.16226E-05 60532   0.161E-03    0.636E-03
RMM:  10    -0.244041898542E+04   -0.26287E-03   -0.10027E-05 59738   0.116E-03    0.956E-03
RMM:  11    -0.244041908635E+04   -0.10093E-03   -0.22892E-06 50404   0.619E-04    0.424E-03
RMM:  12    -0.244041935808E+04   -0.27172E-03   -0.10980E-05 59998   0.101E-03    0.316E-03
RMM:  13    -0.244041965990E+04   -0.30182E-03   -0.19079E-05 60667   0.121E-03    0.171E-03
RMM:  14    -0.244041980190E+04   -0.14201E-03   -0.70464E-06 51216   0.744E-04    0.112E-03
RMM:  15    -0.244041984969E+04   -0.47789E-04   -0.11022E-06 45766   0.432E-04    0.783E-04
RMM:  16    -0.244041989183E+04   -0.42132E-04   -0.97039E-07 45818   0.409E-04    0.449E-04
RMM:  17    -0.244041990972E+04   -0.17891E-04   -0.34513E-07 41997   0.314E-04    0.265E-04
RMM:  18    -0.244041991421E+04   -0.44903E-05   -0.43434E-08 36541   0.253E-04
  11 F= -.24558367E+04 E0= -.24557654E+04  d E =-.542345E+01  mag=     0.0000
       N       E                     dE             d eps       ncg     rms          rms(c)
DAV:   1    -0.244147629264E+04   -0.10564E+01   -0.41810E+01 95040   0.428E+00    0.241E+00
RMM:   2    -0.244129055210E+04    0.18574E+00   -0.98860E-01 74160   0.624E-01    0.110E+00
RMM:   3    -0.244124905261E+04    0.41499E-01   -0.13245E-01 75188   0.183E-01    0.358E-01
RMM:   4    -0.244125821334E+04   -0.91607E-02   -0.98783E-03 74652   0.516E-02    0.353E-01
RMM:   5    -0.244124570061E+04    0.12513E-01   -0.85779E-04 74811   0.140E-02    0.105E-01
RMM:   6    -0.244124523727E+04    0.46335E-03   -0.11266E-04 74131   0.576E-03    0.395E-02
RMM:   7    -0.244124548508E+04   -0.24781E-03   -0.67545E-05 72436   0.389E-03    0.281E-02
RMM:   8    -0.244124563710E+04   -0.15202E-03   -0.25241E-05 61848   0.241E-03    0.921E-03
RMM:   9    -0.244124583380E+04   -0.19670E-03   -0.74344E-06 57828   0.121E-03    0.719E-03
RMM:  10    -0.244124620369E+04   -0.36989E-03   -0.21239E-05 60683   0.160E-03    0.571E-03
RMM:  11    -0.244124629667E+04   -0.92978E-04   -0.22207E-06 53084   0.629E-04    0.574E-03
RMM:  12    -0.244124648394E+04   -0.18727E-03   -0.61956E-06 57033   0.787E-04    0.293E-03
RMM:  13    -0.244124669084E+04   -0.20690E-03   -0.83784E-06 57904   0.864E-04    0.219E-03
RMM:  14    -0.244124689001E+04   -0.19918E-03   -0.11241E-05 58554   0.909E-04    0.123E-03
RMM:  15    -0.244124694909E+04   -0.59077E-04   -0.18779E-06 44805   0.446E-04    0.727E-04
RMM:  16    -0.244124698796E+04   -0.38870E-04   -0.82327E-07 42552   0.393E-04    0.485E-04
RMM:  17    -0.244124701018E+04   -0.22225E-04   -0.49832E-07 43516   0.386E-04    0.296E-04
RMM:  18    -0.244124701527E+04   -0.50862E-05   -0.85036E-08 38496   0.302E-04
  12 F= -.24566762E+04 E0= -.24566151E+04  d E =-.839485E+00  mag=     0.0000
       N       E                     dE             d eps       ncg     rms          rms(c)
DAV:   1    -0.244124701891E+04   -0.87202E-05   -0.54096E-07 95480   0.475E-04    0.213E-04
RMM:   2    -0.244124701966E+04   -0.75401E-06    0.00000E+00 30598   0.117E-04
  13 F= -.24566762E+04 E0= -.24566151E+04  d E =-.839489E+00  mag=     0.0000
       N       E                     dE             d eps       ncg     rms          rms(c)
DAV:   1    -0.244159395560E+04   -0.34694E+00   -0.76302E+00 94600   0.177E+00    0.105E+00
RMM:   2    -0.244155320913E+04    0.40746E-01   -0.12181E-01 73924   0.230E-01    0.538E-01
RMM:   3    -0.244153431008E+04    0.18899E-01   -0.35247E-02 73924   0.915E-02    0.939E-02
RMM:   4    -0.244153418465E+04    0.12543E-03   -0.11868E-03 74742   0.177E-02    0.687E-02
RMM:   5    -0.244153432474E+04   -0.14009E-03   -0.82056E-05 73096   0.449E-03    0.710E-02
RMM:   6    -0.244153420239E+04    0.12235E-03   -0.95671E-05 73939   0.497E-03    0.286E-02
RMM:   7    -0.244153434013E+04   -0.13774E-03   -0.28235E-05 64354   0.253E-03    0.129E-02
RMM:   8    -0.244153474709E+04   -0.40696E-03   -0.31276E-05 61089   0.228E-03    0.823E-03
RMM:   9    -0.244153501363E+04   -0.26655E-03   -0.10460E-05 59889   0.120E-03    0.598E-03
RMM:  10    -0.244153548124E+04   -0.46760E-03   -0.27409E-05 60762   0.161E-03    0.786E-03
RMM:  11    -0.244153560714E+04   -0.12590E-03   -0.39777E-06 53564   0.709E-04    0.414E-03
RMM:  12    -0.244153584482E+04   -0.23768E-03   -0.10707E-05 60138   0.962E-04    0.259E-03
RMM:  13    -0.244153603169E+04   -0.18687E-03   -0.80144E-06 56382   0.831E-04    0.191E-03
RMM:  14    -0.244153618285E+04   -0.15115E-03   -0.70903E-06 50610   0.754E-04    0.113E-03
RMM:  15    -0.244153622795E+04   -0.45105E-04   -0.12169E-06 49119   0.465E-04    0.583E-04
RMM:  16    -0.244153626222E+04   -0.34273E-04   -0.72513E-07 44148   0.372E-04    0.418E-04
RMM:  17    -0.244153627290E+04   -0.10676E-04   -0.14021E-07 38505   0.293E-04    0.248E-04
RMM:  18    -0.244153627550E+04   -0.26034E-05   -0.93554E-08 37686   0.282E-04
  14 F= -.24569830E+04 E0= -.24569216E+04  d E =-.306819E+00  mag=    -0.0000
       N       E                     dE             d eps       ncg     rms          rms(c)
DAV:   1    -0.244192501263E+04   -0.38874E+00   -0.26220E+01 92840   0.327E+00    0.194E+00
RMM:   2    -0.244178797712E+04    0.13704E+00   -0.41990E-01 73924   0.428E-01    0.992E-01
RMM:   3    -0.244172509535E+04    0.62882E-01   -0.12147E-01 73924   0.170E-01    0.171E-01
RMM:   4    -0.244172647767E+04   -0.13823E-02   -0.39595E-03 74799   0.325E-02    0.168E-01
RMM:   5    -0.244172500696E+04    0.14707E-02   -0.27608E-04 74061   0.822E-03    0.112E-01
RMM:   6    -0.244172527128E+04   -0.26432E-03   -0.32405E-04 74330   0.907E-03    0.609E-02
RMM:   7    -0.244172568220E+04   -0.41093E-03   -0.14192E-04 73920   0.561E-03    0.237E-02
RMM:   8    -0.244172672997E+04   -0.10478E-02   -0.11729E-04 73619   0.437E-03    0.159E-02
RMM:   9    -0.244172742875E+04   -0.69878E-03   -0.40047E-05 61063   0.234E-03    0.119E-02
RMM:  10    -0.244172807288E+04   -0.64413E-03   -0.29793E-05 60837   0.188E-03    0.204E-02
RMM:  11    -0.244172871597E+04   -0.64309E-03   -0.44617E-05 61074   0.214E-03    0.710E-03
RMM:  12    -0.244172926371E+04   -0.54774E-03   -0.36046E-05 60828   0.179E-03    0.504E-03
RMM:  13    -0.244172971359E+04   -0.44988E-03   -0.29558E-05 60848   0.160E-03    0.375E-03
RMM:  14    -0.244173005108E+04   -0.33749E-03   -0.22602E-05 60454   0.128E-03    0.238E-03
RMM:  15    -0.244173016294E+04   -0.11186E-03   -0.37527E-06 53614   0.674E-04    0.116E-03
RMM:  16    -0.244173024702E+04   -0.84083E-04   -0.20010E-06 46907   0.535E-04    0.907E-04
RMM:  17    -0.244173028339E+04   -0.36366E-04   -0.92352E-07 44638   0.419E-04    0.472E-04
RMM:  18    -0.244173029085E+04   -0.74588E-05   -0.86735E-08 37630   0.283E-04
  15 F= -.24572102E+04 E0= -.24571420E+04  d E =-.534030E+00  mag=     0.0000
       N       E                     dE             d eps       ncg     rms          rms(c)
DAV:   1    -0.244195810870E+04   -0.22783E+00   -0.87584E+00 90640   0.204E+00    0.126E+00
RMM:   2    -0.244188857867E+04    0.69530E-01   -0.15973E-01 73920   0.238E-01    0.629E-01
RMM:   3    -0.244186492009E+04    0.23659E-01   -0.40008E-02 73930   0.947E-02    0.159E-01
RMM:   4    -0.244186351297E+04    0.14071E-02   -0.34606E-03 74471   0.284E-02    0.713E-02
RMM:   5    -0.244186367401E+04   -0.16104E-03   -0.19177E-04 75034   0.678E-03    0.645E-02
RMM:   6    -0.244186373865E+04   -0.64636E-04   -0.31402E-05 67093   0.267E-03    0.542E-02
RMM:   7    -0.244186408925E+04   -0.35060E-03   -0.63392E-05 68093   0.377E-03    0.173E-02
RMM:   8    -0.244186465220E+04   -0.56295E-03   -0.47667E-05 61374   0.292E-03    0.957E-03
RMM:   9    -0.244186496048E+04   -0.30827E-03   -0.12019E-05 60377   0.133E-03    0.767E-03
RMM:  10    -0.244186556172E+04   -0.60124E-03   -0.35306E-05 60861   0.186E-03    0.119E-02
RMM:  11    -0.244186586922E+04   -0.30751E-03   -0.16202E-05 60560   0.128E-03    0.550E-03
RMM:  12    -0.244186629745E+04   -0.42823E-03   -0.31275E-05 60927   0.159E-03    0.278E-03
RMM:  13    -0.244186651993E+04   -0.22248E-03   -0.10181E-05 56846   0.921E-04    0.186E-03
RMM:  14    -0.244186671172E+04   -0.19179E-03   -0.90409E-06 54466   0.879E-04    0.117E-03
RMM:  15    -0.244186675515E+04   -0.43432E-04   -0.10159E-06 47347   0.415E-04    0.818E-04
RMM:  16    -0.244186679866E+04   -0.43505E-04   -0.81610E-07 42600   0.366E-04    0.465E-04
RMM:  17    -0.244186682002E+04   -0.21361E-04   -0.42483E-07 42527   0.358E-04    0.270E-04
RMM:  18    -0.244186682524E+04   -0.52206E-05   -0.42184E-08 37203   0.290E-04
  16 F= -.24574430E+04 E0= -.24573730E+04  d E =-.232829E+00  mag=     0.0000
       N       E                     dE             d eps       ncg     rms          rms(c)
DAV:   1    -0.244188743866E+04   -0.20619E-01   -0.39881E+00 95920   0.138E+00    0.848E-01
RMM:   2    -0.244185574801E+04    0.31691E-01   -0.72640E-02 73920   0.161E-01    0.425E-01
RMM:   3    -0.244184478603E+04    0.10962E-01   -0.18156E-02 73930   0.639E-02    0.107E-01
RMM:   4    -0.244184408422E+04    0.70181E-03   -0.15931E-03 74451   0.193E-02    0.492E-02
RMM:   5    -0.244184418888E+04   -0.10466E-03   -0.85676E-05 74104   0.455E-03    0.488E-02
RMM:   6    -0.244184414548E+04    0.43402E-04   -0.14242E-05 59576   0.187E-03    0.343E-02
RMM:   7    -0.244184435332E+04   -0.20784E-03   -0.27977E-05 61626   0.257E-03    0.116E-02
RMM:   8    -0.244184465957E+04   -0.30624E-03   -0.20846E-05 60608   0.195E-03    0.657E-03
RMM:   9    -0.244184484008E+04   -0.18052E-03   -0.53434E-06 56075   0.911E-04    0.591E-03
RMM:  10    -0.244184495365E+04   -0.11357E-03   -0.22387E-06 48127   0.593E-04    0.740E-03
RMM:  11    -0.244184537250E+04   -0.41885E-03   -0.27148E-05 60764   0.161E-03    0.311E-03
RMM:  12    -0.244184562168E+04   -0.24918E-03   -0.16163E-05 60147   0.116E-03    0.198E-03
RMM:  13    -0.244184573830E+04   -0.11662E-03   -0.37916E-06 46750   0.593E-04    0.151E-03
RMM:  14    -0.244184584117E+04   -0.10287E-03   -0.35578E-06 52378   0.628E-04    0.105E-03
RMM:  15    -0.244184589598E+04   -0.54804E-04   -0.14070E-06 45108   0.423E-04    0.547E-04
RMM:  16    -0.244184592217E+04   -0.26196E-04   -0.46803E-07 41779   0.330E-04    0.332E-04
RMM:  17    -0.244184593522E+04   -0.13048E-04   -0.18779E-07 39400   0.326E-04    0.217E-04
RMM:  18    -0.244184593821E+04   -0.29909E-05   -0.14066E-07 38838   0.311E-04
  17 F= -.24574881E+04 E0= -.24574166E+04  d E =-.277901E+00  mag=     0.0000
       N       E                     dE             d eps       ncg     rms          rms(c)
DAV:   1    -0.244194604252E+04   -0.10011E+00   -0.39772E+00 98560   0.126E+00    0.102E+00
RMM:   2    -0.244189230954E+04    0.53733E-01   -0.86410E-02 73920   0.178E-01    0.536E-01
RMM:   3    -0.244186565764E+04    0.26652E-01   -0.49506E-02 73920   0.104E-01    0.923E-02
RMM:   4    -0.244186917097E+04   -0.35133E-02   -0.10408E-03 75061   0.163E-02    0.191E-01
RMM:   5    -0.244186569665E+04    0.34743E-02   -0.14400E-04 74554   0.576E-03    0.558E-02
RMM:   6    -0.244186595084E+04   -0.25420E-03   -0.76555E-05 73418   0.428E-03    0.374E-02
RMM:   7    -0.244186649947E+04   -0.54863E-03   -0.12440E-04 73920   0.503E-03    0.144E-02
RMM:   8    -0.244186707826E+04   -0.57879E-03   -0.55207E-05 66524   0.289E-03    0.106E-02
RMM:   9    -0.244186765398E+04   -0.57571E-03   -0.35585E-05 60928   0.210E-03    0.111E-02
RMM:  10    -0.244186785019E+04   -0.19621E-03   -0.59147E-06 56527   0.927E-04    0.928E-03
RMM:  11    -0.244186853239E+04   -0.68221E-03   -0.47594E-05 61088   0.204E-03    0.466E-03
RMM:  12    -0.244186898234E+04   -0.44994E-03   -0.32121E-05 60840   0.163E-03    0.309E-03
RMM:  13    -0.244186929019E+04   -0.30786E-03   -0.19826E-05 60542   0.123E-03    0.191E-03
RMM:  14    -0.244186942907E+04   -0.13887E-03   -0.52154E-06 47054   0.683E-04    0.141E-03
RMM:  15    -0.244186949386E+04   -0.64794E-04   -0.18426E-06 50847   0.546E-04    0.729E-04
RMM:  16    -0.244186953234E+04   -0.38480E-04   -0.78024E-07 45295   0.386E-04    0.478E-04
RMM:  17    -0.244186955094E+04   -0.18602E-04   -0.39062E-07 42137   0.320E-04    0.310E-04
RMM:  18    -0.244186955464E+04   -0.37012E-05   -0.91508E-09 36087   0.249E-04
  18 F= -.24575724E+04 E0= -.24575036E+04  d E =-.843025E-01  mag=     0.0000
       N       E                     dE             d eps       ncg     rms          rms(c)
DAV:   1    -0.244190121709E+04   -0.31666E-01   -0.34342E+00 96800   0.117E+00    0.942E-01
RMM:   2    -0.244185492565E+04    0.46291E-01   -0.74473E-02 73920   0.165E-01    0.498E-01
RMM:   3    -0.244183173205E+04    0.23194E-01   -0.42931E-02 73920   0.969E-02    0.836E-02
RMM:   4    -0.244183439332E+04   -0.26613E-02   -0.87820E-04 75059   0.150E-02    0.166E-01
RMM:   5    -0.244183181402E+04    0.25793E-02   -0.11241E-04 74392   0.508E-03    0.522E-02
RMM:   6    -0.244183203590E+04   -0.22188E-03   -0.65776E-05 72611   0.398E-03    0.346E-02
RMM:   7    -0.244183251909E+04   -0.48319E-03   -0.10855E-04 73916   0.470E-03    0.133E-02
RMM:   8    -0.244183299987E+04   -0.48079E-03   -0.45511E-05 64124   0.264E-03    0.979E-03
RMM:   9    -0.244183357209E+04   -0.57222E-03   -0.36218E-05 60924   0.210E-03    0.854E-03
RMM:  10    -0.244183379657E+04   -0.22448E-03   -0.69913E-06 57413   0.950E-04    0.104E-02
RMM:  11    -0.244183433953E+04   -0.54296E-03   -0.33402E-05 60886   0.171E-03    0.431E-03
RMM:  12    -0.244183474586E+04   -0.40632E-03   -0.27235E-05 60836   0.148E-03    0.287E-03
RMM:  13    -0.244183502701E+04   -0.28115E-03   -0.17568E-05 60284   0.116E-03    0.167E-03
RMM:  14    -0.244183516815E+04   -0.14114E-03   -0.56655E-06 47477   0.705E-04    0.107E-03
RMM:  15    -0.244183521569E+04   -0.47540E-04   -0.13373E-06 49907   0.496E-04    0.658E-04
RMM:  16    -0.244183524297E+04   -0.27272E-04   -0.53568E-07 44446   0.339E-04    0.440E-04
RMM:  17    -0.244183525959E+04   -0.16624E-04   -0.38245E-07 42223   0.307E-04    0.253E-04
RMM:  18    -0.244183526288E+04   -0.32914E-05   -0.14872E-08 36189   0.238E-04
  19 F= -.24575948E+04 E0= -.24575279E+04  d E =-.106670E+00  mag=     0.0000
       N       E                     dE             d eps       ncg     rms          rms(c)
DAV:   1    -0.244188913060E+04   -0.53871E-01   -0.12042E+00 97680   0.644E-01    0.637E-01
RMM:   2    -0.244186461915E+04    0.24511E-01   -0.29313E-02 73920   0.953E-02    0.332E-01
RMM:   3    -0.244185270190E+04    0.11917E-01   -0.19967E-02 73920   0.649E-02    0.563E-02
RMM:   4    -0.244185394646E+04   -0.12446E-02   -0.45863E-04 74792   0.106E-02    0.116E-01
RMM:   5    -0.244185263941E+04    0.13071E-02   -0.60903E-05 73048   0.366E-03    0.356E-02
RMM:   6    -0.244185272294E+04   -0.83528E-04   -0.27977E-05 65426   0.259E-03    0.238E-02
RMM:   7    -0.244185302701E+04   -0.30407E-03   -0.65163E-05 71562   0.364E-03    0.876E-03
RMM:   8    -0.244185332742E+04   -0.30042E-03   -0.19965E-05 60606   0.174E-03    0.692E-03
RMM:   9    -0.244185362566E+04   -0.29823E-03   -0.11633E-05 59970   0.115E-03    0.535E-03
RMM:  10    -0.244185410907E+04   -0.48342E-03   -0.30149E-05 60883   0.161E-03    0.964E-03
RMM:  11    -0.244185429124E+04   -0.18217E-03   -0.90504E-06 58084   0.919E-04    0.275E-03
RMM:  12    -0.244185446653E+04   -0.17529E-03   -0.69179E-06 51600   0.772E-04    0.189E-03
RMM:  13    -0.244185467688E+04   -0.21035E-03   -0.11642E-05 57344   0.994E-04    0.107E-03
RMM:  14    -0.244185473035E+04   -0.53470E-04   -0.14273E-06 45071   0.445E-04    0.726E-04
RMM:  15    -0.244185475910E+04   -0.28745E-04   -0.60674E-07 42507   0.376E-04    0.407E-04
RMM:  16    -0.244185477924E+04   -0.20136E-04   -0.39982E-07 44083   0.380E-04    0.289E-04
RMM:  17    -0.244185478369E+04   -0.44567E-05   -0.10436E-07 38304   0.287E-04
  20 F= -.24576460E+04 E0= -.24575783E+04  d E =-.512372E-01  mag=     0.0000
       N       E                     dE             d eps       ncg     rms          rms(c)
DAV:   1    -0.244220884803E+04   -0.35407E+00   -0.10938E+01 98560   0.194E+00    0.192E+00
RMM:   2    -0.244198939270E+04    0.21946E+00   -0.26582E-01 73920   0.287E-01    0.999E-01
RMM:   3    -0.244188812595E+04    0.10127E+00   -0.18040E-01 73920   0.195E-01    0.170E-01
RMM:   4    -0.244190085575E+04   -0.12730E-01   -0.41500E-03 74783   0.318E-02    0.360E-01
RMM:   5    -0.244188879902E+04    0.12057E-01   -0.57153E-04 74914   0.111E-02    0.111E-01
RMM:   6    -0.244188932167E+04   -0.52265E-03   -0.26427E-04 74121   0.765E-03    0.716E-02
RMM:   7    -0.244189146312E+04   -0.21415E-02   -0.69900E-04 73920   0.118E-02    0.265E-02
RMM:   8    -0.244189296834E+04   -0.15052E-02   -0.18690E-04 73848   0.535E-03    0.210E-02
RMM:   9    -0.244189440571E+04   -0.14374E-02   -0.10044E-04 62510   0.348E-03    0.160E-02
RMM:  10    -0.244189697536E+04   -0.25696E-02   -0.36361E-04 72285   0.590E-03    0.192E-02
RMM:  11    -0.244189733674E+04   -0.36139E-03   -0.28481E-05 60942   0.176E-03    0.103E-02
RMM:  12    -0.244189800416E+04   -0.66742E-03   -0.47636E-05 61169   0.203E-03    0.579E-03
RMM:  13    -0.244189878667E+04   -0.78251E-03   -0.74157E-05 61392   0.241E-03    0.313E-03
RMM:  14    -0.244189899409E+04   -0.20742E-03   -0.10985E-05 58109   0.101E-03    0.214E-03
RMM:  15    -0.244189910068E+04   -0.10659E-03   -0.30001E-06 47693   0.609E-04    0.126E-03
RMM:  16    -0.244189918473E+04   -0.84052E-04   -0.25051E-06 52614   0.610E-04    0.883E-04
RMM:  17    -0.244189920741E+04   -0.22682E-04   -0.49138E-07 42743   0.321E-04    0.558E-04
RMM:  18    -0.244189922552E+04   -0.18110E-04   -0.36594E-07 41860   0.325E-04    0.358E-04
RMM:  19    -0.244189923211E+04   -0.65814E-05   -0.10719E-07 38468   0.305E-04
  21 F= -.24577861E+04 E0= -.24577157E+04  d E =-.191312E+00  mag=    -0.0000
       N       E                     dE             d eps       ncg     rms          rms(c)
DAV:   1    -0.244317613933E+04   -0.12769E+01   -0.44522E+01 98560   0.391E+00    0.387E+00
RMM:   2    -0.244229404337E+04    0.88210E+00   -0.10855E+00 73924   0.579E-01    0.201E+00
RMM:   3    -0.244190224364E+04    0.39180E+00   -0.73284E-01 73920   0.393E-01    0.347E-01
RMM:   4    -0.244196183121E+04   -0.59588E-01   -0.16490E-02 74869   0.636E-02    0.787E-01
RMM:   5    -0.244190340873E+04    0.58422E-01   -0.24591E-03 75023   0.229E-02    0.225E-01
RMM:   6    -0.244190465779E+04   -0.12491E-02   -0.10946E-03 74031   0.156E-02    0.144E-01
RMM:   7    -0.244191056964E+04   -0.59119E-02   -0.29950E-03 73920   0.247E-02    0.541E-02
RMM:   8    -0.244191441712E+04   -0.38475E-02   -0.71519E-04 73920   0.109E-02    0.431E-02
RMM:   9    -0.244191764248E+04   -0.32254E-02   -0.30546E-04 73744   0.651E-03    0.425E-02
RMM:  10    -0.244191967429E+04   -0.20318E-02   -0.12364E-04 67509   0.415E-03    0.490E-02
RMM:  11    -0.244192489712E+04   -0.52228E-02   -0.10568E-03 73920   0.105E-02    0.163E-02
RMM:  12    -0.244192660300E+04   -0.17059E-02   -0.24147E-04 69788   0.478E-03    0.118E-02
RMM:  13    -0.244192817088E+04   -0.15679E-02   -0.20166E-04 63762   0.423E-03    0.735E-03
RMM:  14    -0.244192865129E+04   -0.48041E-03   -0.40152E-05 61038   0.199E-03    0.449E-03
RMM:  15    -0.244192889236E+04   -0.24108E-03   -0.12050E-05 60064   0.119E-03    0.260E-03
RMM:  16    -0.244192902190E+04   -0.12954E-03   -0.47018E-06 49093   0.741E-04    0.195E-03
RMM:  17    -0.244192907347E+04   -0.51567E-04   -0.24268E-06 50383   0.582E-04    0.113E-03
RMM:  18    -0.244192911099E+04   -0.37525E-04   -0.13447E-06 45363   0.450E-04    0.703E-04
RMM:  19    -0.244192912638E+04   -0.15383E-04   -0.61018E-07 43581   0.382E-04    0.477E-04
RMM:  20    -0.244192913497E+04   -0.85895E-05   -0.78082E-08 38280   0.300E-04
  22 F= -.24580094E+04 E0= -.24579331E+04  d E =-.414669E+00  mag=    -0.0000
       N       E                     dE             d eps       ncg     rms          rms(c)
DAV:   1    -0.244679817696E+04   -0.48691E+01   -0.18256E+02 98560   0.795E+00    0.782E+00
RMM:   2    -0.244326504689E+04    0.35331E+01   -0.46097E+00 73922   0.118E+00    0.409E+00
RMM:   3    -0.244171095572E+04    0.15541E+01   -0.30530E+00 73920   0.802E-01    0.720E-01
RMM:   4    -0.244202100922E+04   -0.31005E+00   -0.64953E-02 75058   0.127E-01    0.175E+00
RMM:   5    -0.244171394221E+04    0.30707E+00   -0.11439E-02 75326   0.497E-02    0.408E-01
RMM:   6    -0.244171698334E+04   -0.30411E-02   -0.47163E-03 73969   0.326E-02    0.289E-01
RMM:   7    -0.244172724773E+04   -0.10264E-01   -0.11269E-02 73920   0.489E-02    0.115E-01
RMM:   8    -0.244173698171E+04   -0.97340E-02   -0.26276E-03 73920   0.219E-02    0.113E-01
RMM:   9    -0.244173905288E+04   -0.20712E-02   -0.23103E-04 74240   0.669E-03    0.115E-01
RMM:  10    -0.244174577381E+04   -0.67209E-02   -0.87717E-04 73920   0.116E-02    0.652E-02
RMM:  11    -0.244175982424E+04   -0.14050E-01   -0.46295E-03 73920   0.235E-02    0.319E-02
RMM:  12    -0.244176357843E+04   -0.37542E-02   -0.82677E-04 73920   0.933E-03    0.237E-02
RMM:  13    -0.244176628889E+04   -0.27105E-02   -0.41514E-04 73599   0.651E-03    0.165E-02
RMM:  14    -0.244176756510E+04   -0.12762E-02   -0.16255E-04 63175   0.414E-03    0.868E-03
RMM:  15    -0.244176802701E+04   -0.46191E-03   -0.39308E-05 61134   0.225E-03    0.554E-03
RMM:  16    -0.244176818178E+04   -0.15477E-03   -0.11702E-05 60251   0.121E-03    0.421E-03
RMM:  17    -0.244176825646E+04   -0.74684E-04   -0.67502E-06 51531   0.851E-04    0.248E-03
RMM:  18    -0.244176830893E+04   -0.52469E-04   -0.54472E-06 52635   0.752E-04    0.159E-03
RMM:  19    -0.244176831443E+04   -0.55047E-05   -0.22727E-06 46826   0.502E-04
  23 F= -.24582444E+04 E0= -.24581620E+04  d E =-.649621E+00  mag=    -0.0000
       N       E                     dE             d eps       ncg     rms          rms(c)
DAV:   1    -0.244183628224E+04   -0.67973E-01   -0.13391E+00 98560   0.686E-01    0.692E-01
RMM:   2    -0.244180873577E+04    0.27546E-01   -0.36070E-02 73920   0.104E-01    0.357E-01
RMM:   3    -0.244179525642E+04    0.13479E-01   -0.22275E-02 73926   0.690E-02    0.609E-02
RMM:   4    -0.244179730286E+04   -0.20464E-02   -0.47102E-04 74846   0.109E-02    0.152E-01
RMM:   5    -0.244179516331E+04    0.21395E-02   -0.74502E-05 73720   0.406E-03    0.376E-02
RMM:   6    -0.244179523018E+04   -0.66870E-04   -0.30905E-05 66189   0.265E-03    0.253E-02
RMM:   7    -0.244179553680E+04   -0.30662E-03   -0.85044E-05 73849   0.403E-03    0.943E-03
RMM:   8    -0.244179590335E+04   -0.36655E-03   -0.26357E-05 60832   0.195E-03    0.120E-02
RMM:   9    -0.244179597861E+04   -0.75257E-04   -0.23671E-06 54331   0.730E-04    0.812E-03
RMM:  10    -0.244179639815E+04   -0.41955E-03   -0.20898E-05 60718   0.142E-03    0.524E-03
RMM:  11    -0.244179688503E+04   -0.48688E-03   -0.41665E-05 61186   0.187E-03    0.289E-03
RMM:  12    -0.244179707185E+04   -0.18682E-03   -0.11091E-05 58336   0.985E-04    0.211E-03
RMM:  13    -0.244179720577E+04   -0.13392E-03   -0.57787E-06 48414   0.709E-04    0.147E-03
RMM:  14    -0.244179731144E+04   -0.10566E-03   -0.56448E-06 53855   0.743E-04    0.790E-04
RMM:  15    -0.244179734285E+04   -0.31411E-04   -0.10450E-06 44311   0.387E-04    0.492E-04
RMM:  16    -0.244179735979E+04   -0.16942E-04   -0.43598E-07 41239   0.331E-04    0.366E-04
RMM:  17    -0.244179736959E+04   -0.98045E-05   -0.21569E-07 39275   0.325E-04
  24 F= -.24583147E+04 E0= -.24582324E+04  d E =-.703491E-01  mag=    -0.0000
       N       E                     dE             d eps       ncg     rms          rms(c)
DAV:   1    -0.244223610228E+04   -0.43874E+00   -0.12291E+01 98560   0.207E+00    0.208E+00
RMM:   2    -0.244198361545E+04    0.25249E+00   -0.30510E-01 73920   0.308E-01    0.108E+00
RMM:   3    -0.244186866872E+04    0.11495E+00   -0.20502E-01 73920   0.208E-01    0.181E-01
RMM:   4    -0.244188522289E+04   -0.16554E-01   -0.41375E-03 74913   0.324E-02    0.420E-01
RMM:   5    -0.244186954584E+04    0.15677E-01   -0.61072E-04 75198   0.115E-02    0.122E-01
RMM:   6    -0.244186988870E+04   -0.34287E-03   -0.28480E-04 74097   0.777E-03    0.763E-02
RMM:   7    -0.244187233431E+04   -0.24456E-02   -0.93818E-04 73920   0.133E-02    0.285E-02
RMM:   8    -0.244187445368E+04   -0.21194E-02   -0.28023E-04 73920   0.644E-03    0.224E-02
RMM:   9    -0.244187612999E+04   -0.16763E-02   -0.10889E-04 63550   0.367E-03    0.354E-02
RMM:  10    -0.244187707949E+04   -0.94950E-03   -0.57986E-05 61568   0.265E-03    0.180E-02
RMM:  11    -0.244187941975E+04   -0.23403E-02   -0.32410E-04 69002   0.546E-03    0.867E-03
RMM:  12    -0.244188015442E+04   -0.73467E-03   -0.72871E-05 61592   0.259E-03    0.612E-03
RMM:  13    -0.244188077927E+04   -0.62485E-03   -0.55529E-05 61330   0.217E-03    0.429E-03
RMM:  14    -0.244188104724E+04   -0.26797E-03   -0.19388E-05 60378   0.128E-03    0.238E-03
RMM:  15    -0.244188115831E+04   -0.11107E-03   -0.63223E-06 52036   0.804E-04    0.140E-03
RMM:  16    -0.244188120262E+04   -0.44309E-04   -0.27190E-06 50242   0.585E-04    0.105E-03
RMM:  17    -0.244188122781E+04   -0.25198E-04   -0.10519E-06 43666   0.372E-04    0.662E-04
RMM:  18    -0.244188124526E+04   -0.17450E-04   -0.70314E-07 43141   0.355E-04    0.470E-04
RMM:  19    -0.244188125138E+04   -0.61134E-05   -0.23478E-07 40207   0.310E-04
  25 F= -.24585232E+04 E0= -.24584417E+04  d E =-.278841E+00  mag=    -0.0000
       N       E                     dE             d eps       ncg     rms          rms(c)
DAV:   1    -0.244346473802E+04   -0.15835E+01   -0.50039E+01 98560   0.418E+00    0.418E+00
RMM:   2    -0.244245439043E+04    0.10103E+01   -0.12556E+00 73920   0.623E-01    0.217E+00
RMM:   3    -0.244200518173E+04    0.44921E+00   -0.84540E-01 73920   0.423E-01    0.354E-01
RMM:   4    -0.244205819136E+04   -0.53010E-01   -0.16668E-02 74834   0.652E-02    0.750E-01
RMM:   5    -0.244200850746E+04    0.49684E-01   -0.23448E-03 75443   0.225E-02    0.261E-01
RMM:   6    -0.244200841681E+04    0.90646E-04   -0.11765E-03 74077   0.157E-02    0.151E-01
RMM:   7    -0.244201473447E+04   -0.63177E-02   -0.39715E-03 73920   0.278E-02    0.584E-02
RMM:   8    -0.244201986687E+04   -0.51324E-02   -0.10263E-03 73920   0.128E-02    0.498E-02
RMM:   9    -0.244202178443E+04   -0.19176E-02   -0.12589E-04 71698   0.452E-03    0.704E-02
RMM:  10    -0.244202571592E+04   -0.39315E-02   -0.42285E-04 73804   0.741E-03    0.317E-02
RMM:  11    -0.244203169023E+04   -0.59743E-02   -0.12428E-03 73920   0.115E-02    0.175E-02
RMM:  12    -0.244203342148E+04   -0.17313E-02   -0.25619E-04 70131   0.496E-03    0.121E-02
RMM:  13    -0.244203492820E+04   -0.15067E-02   -0.22258E-04 65271   0.444E-03    0.715E-03
RMM:  14    -0.244203531656E+04   -0.38837E-03   -0.37416E-05 61169   0.196E-03    0.474E-03
RMM:  15    -0.244203548806E+04   -0.17150E-03   -0.15292E-05 60598   0.131E-03    0.272E-03
RMM:  16    -0.244203557711E+04   -0.89046E-04   -0.82617E-06 51200   0.868E-04    0.185E-03
RMM:  17    -0.244203560433E+04   -0.27219E-04   -0.19029E-06 46340   0.515E-04    0.140E-03
RMM:  18    -0.244203562252E+04   -0.18191E-04   -0.19604E-06 48437   0.506E-04    0.992E-04
RMM:  19    -0.244203562270E+04   -0.18287E-06   -0.67183E-07 43285   0.351E-04
  26 F= -.24589301E+04 E0= -.24588522E+04  d E =-.685722E+00  mag=    -0.0000
       N       E                     dE             d eps       ncg     rms          rms(c)
DAV:   1    -0.244808134149E+04   -0.60457E+01   -0.20751E+02 98560   0.856E+00    0.845E+00
RMM:   2    -0.244402962519E+04    0.40517E+01   -0.53181E+00 73920   0.127E+00    0.444E+00
RMM:   3    -0.244221531993E+04    0.18143E+01   -0.36022E+00 73920   0.874E-01    0.658E-01
RMM:   4    -0.244235735795E+04   -0.14204E+00   -0.64874E-02 74748   0.132E-01    0.116E+00
RMM:   5    -0.244222868165E+04    0.12868E+00   -0.75916E-03 75756   0.410E-02    0.404E-01
RMM:   6    -0.244223315696E+04   -0.44753E-02   -0.53671E-03 73998   0.340E-02    0.298E-01
RMM:   7    -0.244224021775E+04   -0.70608E-02   -0.11663E-02 73920   0.489E-02    0.120E-01
RMM:   8    -0.244225232222E+04   -0.12104E-01   -0.40085E-03 73920   0.267E-02    0.921E-02
RMM:   9    -0.244226045205E+04   -0.81298E-02   -0.88309E-04 73953   0.122E-02    0.136E-01
RMM:  10    -0.244226626703E+04   -0.58150E-02   -0.97459E-04 73920   0.122E-02    0.693E-02
RMM:  11    -0.244227807649E+04   -0.11809E-01   -0.36854E-03 73920   0.211E-02    0.332E-02
RMM:  12    -0.244228130710E+04   -0.32306E-02   -0.74819E-04 73920   0.896E-03    0.222E-02
RMM:  13    -0.244228390232E+04   -0.25952E-02   -0.65131E-04 73920   0.794E-03    0.125E-02
RMM:  14    -0.244228425990E+04   -0.35757E-03   -0.66944E-05 61902   0.287E-03    0.791E-03
RMM:  15    -0.244228447555E+04   -0.21566E-03   -0.34589E-05 61236   0.219E-03    0.582E-03
RMM:  16    -0.244228454018E+04   -0.64625E-04   -0.14295E-05 60004   0.117E-03    0.389E-03
RMM:  17    -0.244228455790E+04   -0.17718E-04   -0.35298E-06 55693   0.695E-04    0.305E-03
RMM:  18    -0.244228457367E+04   -0.15774E-04   -0.29218E-06 46749   0.580E-04    0.252E-03
RMM:  19    -0.244228456290E+04    0.10773E-04   -0.21781E-06 48778   0.528E-04    0.145E-03
RMM:  20    -0.244228460238E+04   -0.39481E-04   -0.90738E-07 43804   0.381E-04    0.101E-03
RMM:  21    -0.244228465339E+04   -0.51010E-04   -0.80427E-07 43275   0.365E-04    0.624E-04
RMM:  22    -0.244228467559E+04   -0.22205E-04   -0.15564E-07 38250   0.301E-04    0.314E-04
RMM:  23    -0.244228468893E+04   -0.13333E-04   -0.24397E-07 38822   0.310E-04    0.162E-04
RMM:  24    -0.244228469466E+04   -0.57313E-05   -0.10974E-07 37307   0.277E-04
  27 F= -.24596960E+04 E0= -.24596297E+04  d E =-.145158E+01  mag=     0.0000
       N       E                     dE             d eps       ncg     rms          rms(c)
DAV:   1    -0.246603062531E+04   -0.23746E+02   -0.88724E+02 95040   0.180E+01    0.174E+01
RMM:   2    -0.244971218504E+04    0.16318E+02   -0.24832E+01 73920   0.269E+00    0.922E+00
RMM:   3    -0.244231097557E+04    0.74012E+01   -0.15435E+01 73920   0.182E+00    0.131E+00
RMM:   4    -0.244269174161E+04   -0.38077E+00   -0.27060E-01 74609   0.274E-01    0.196E+00
RMM:   5    -0.244230238220E+04    0.38936E+00   -0.32014E-02 75871   0.853E-02    0.768E-01
RMM:   6    -0.244228379174E+04    0.18590E-01   -0.21824E-02 73990   0.701E-02    0.555E-01
RMM:   7    -0.244227409897E+04    0.96928E-02   -0.38972E-02 73920   0.933E-02    0.257E-01
RMM:   8    -0.244229620607E+04   -0.22107E-01   -0.16337E-02 73920   0.582E-02    0.204E-01
RMM:   9    -0.244230408424E+04   -0.78782E-02   -0.14550E-03 73985   0.174E-02    0.239E-01
RMM:  10    -0.244231469319E+04   -0.10609E-01   -0.33642E-03 73920   0.252E-02    0.140E-01
RMM:  11    -0.244233623263E+04   -0.21539E-01   -0.13260E-02 73920   0.429E-02    0.651E-02
RMM:  12    -0.244234011093E+04   -0.38783E-02   -0.24003E-03 73920   0.170E-02    0.425E-02
RMM:  13    -0.244234235259E+04   -0.22417E-02   -0.14464E-03 73920   0.127E-02    0.264E-02
RMM:  14    -0.244234257672E+04   -0.22413E-03   -0.14758E-04 73920   0.483E-03    0.175E-02
RMM:  15    -0.244234262742E+04   -0.50699E-04   -0.10042E-04 69947   0.398E-03    0.138E-02
RMM:  16    -0.244234247584E+04    0.15158E-03   -0.28710E-05 61372   0.186E-03    0.991E-03
RMM:  17    -0.244234245085E+04    0.24995E-04   -0.97771E-06 58840   0.129E-03    0.736E-03
RMM:  18    -0.244234256866E+04   -0.11781E-03   -0.11495E-05 59679   0.117E-03    0.524E-03
RMM:  19    -0.244234266677E+04   -0.98111E-04   -0.68398E-06 55798   0.793E-04    0.299E-03
RMM:  20    -0.244234283541E+04   -0.16864E-03   -0.33881E-06 49319   0.594E-04    0.186E-03
RMM:  21    -0.244234297227E+04   -0.13686E-03   -0.26594E-06 49357   0.527E-04    0.970E-04
RMM:  22    -0.244234301863E+04   -0.46359E-04   -0.57507E-07 42532   0.315E-04    0.518E-04
RMM:  23    -0.244234304587E+04   -0.27236E-04   -0.31669E-07 40133   0.299E-04    0.214E-04
RMM:  24    -0.244234305256E+04   -0.66900E-05   -0.16509E-07 38461   0.273E-04
  28 F= -.24608011E+04 E0= -.24607454E+04  d E =-.255669E+01  mag=    -0.0000
       N       E                     dE             d eps       ncg     rms          rms(c)
DAV:   1    -0.253689640512E+04   -0.94553E+02   -0.40975E+03 86240   0.399E+01    0.377E+01
RMM:   2    -0.247184775699E+04    0.65049E+02   -0.14342E+02 73946   0.619E+00    0.201E+01
RMM:   3    -0.244025136545E+04    0.31596E+02   -0.67878E+01 73954   0.395E+00    0.267E+00
RMM:   4    -0.244339333462E+04   -0.31420E+01   -0.12103E+00 74207   0.584E-01    0.528E+00
RMM:   5    -0.243971206570E+04    0.36813E+01   -0.24388E-01 75970   0.236E-01    0.131E+00
RMM:   6    -0.243949598898E+04    0.21608E+00   -0.15929E-01 73920   0.200E-01    0.816E-01
RMM:   7    -0.243940417692E+04    0.91812E-01   -0.10068E-01 73920   0.158E-01    0.538E-01
RMM:   8    -0.243937719030E+04    0.26987E-01   -0.37412E-02 73920   0.957E-02    0.369E-01
RMM:   9    -0.243937231415E+04    0.48762E-02   -0.15769E-02 73920   0.599E-02    0.270E-01
RMM:  10    -0.243936913462E+04    0.31795E-02   -0.27010E-02 73920   0.683E-02    0.147E-01
RMM:  11    -0.243936587457E+04    0.32600E-02   -0.89128E-03 73920   0.354E-02    0.141E-01
RMM:  12    -0.243936415720E+04    0.17174E-02   -0.64807E-04 73939   0.103E-02    0.123E-01
RMM:  13    -0.243935866880E+04    0.54884E-02   -0.17173E-03 73920   0.157E-02    0.648E-02
RMM:  14    -0.243935471748E+04    0.39513E-02   -0.58110E-04 74004   0.999E-03    0.431E-02
RMM:  15    -0.243935307231E+04    0.16452E-02   -0.23438E-04 73920   0.657E-03    0.273E-02
RMM:  16    -0.243935304379E+04    0.28517E-04   -0.54830E-05 64891   0.291E-03    0.193E-02
RMM:  17    -0.243935366427E+04   -0.62048E-03   -0.29642E-05 62090   0.221E-03    0.127E-02
RMM:  18    -0.243935454672E+04   -0.88244E-03   -0.35602E-05 62053   0.189E-03    0.573E-03
RMM:  19    -0.243935489035E+04   -0.34363E-03   -0.98106E-06 59363   0.101E-03    0.322E-03
RMM:  20    -0.243935511008E+04   -0.21973E-03   -0.54050E-06 50651   0.725E-04    0.152E-03
RMM:  21    -0.243935516721E+04   -0.57132E-04   -0.11387E-06 48153   0.444E-04    0.826E-04
RMM:  22    -0.243935518649E+04   -0.19278E-04   -0.26335E-07 40431   0.285E-04    0.476E-04
RMM:  23    -0.243935520069E+04   -0.14202E-04   -0.39166E-07 42199   0.304E-04    0.171E-04
RMM:  24    -0.243935520346E+04   -0.27698E-05   -0.39639E-08 36973   0.229E-04
  29 F= -.24594415E+04 E0= -.24593919E+04  d E =-.119711E+01  mag=    -0.0000
       N       E                     dE             d eps       ncg     rms          rms(c)
DAV:   1    -0.251935827982E+04   -0.80003E+02   -0.26575E+03 98560   0.296E+01    0.300E+01
RMM:   2    -0.246815739644E+04    0.51201E+02   -0.94688E+01 73920   0.505E+00    0.160E+01
RMM:   3    -0.244315862725E+04    0.24999E+02   -0.46850E+01 73946   0.327E+00    0.290E+00
RMM:   4    -0.244467782103E+04   -0.15192E+01   -0.62943E-01 75152   0.436E-01    0.415E+00
RMM:   5    -0.244277708989E+04    0.19007E+01   -0.81387E-02 75424   0.140E-01    0.152E+00
RMM:   6    -0.244223180264E+04    0.54529E+00   -0.20392E-01 73920   0.203E-01    0.644E-01
RMM:   7    -0.244209544388E+04    0.13636E+00   -0.79287E-02 73920   0.122E-01    0.575E-01
RMM:   8    -0.244208849528E+04    0.69486E-02   -0.66607E-03 73954   0.364E-02    0.574E-01
RMM:   9    -0.244206331342E+04    0.25182E-01   -0.68878E-03 73920   0.378E-02    0.327E-01
RMM:  10    -0.244208162291E+04   -0.18309E-01   -0.12555E-02 73920   0.565E-02    0.194E-01
RMM:  11    -0.244209944700E+04   -0.17824E-01   -0.74777E-03 73920   0.428E-02    0.120E-01
RMM:  12    -0.244211105258E+04   -0.11606E-01   -0.35618E-03 73920   0.294E-02    0.787E-02
RMM:  13    -0.244212251101E+04   -0.11458E-01   -0.13036E-03 73920   0.151E-02    0.564E-02
RMM:  14    -0.244212733312E+04   -0.48221E-02   -0.10486E-03 73920   0.113E-02    0.334E-02
RMM:  15    -0.244213252891E+04   -0.51958E-02   -0.28907E-04 73920   0.599E-03    0.280E-02
RMM:  16    -0.244213742275E+04   -0.48938E-02   -0.12152E-04 64809   0.367E-03    0.199E-02
RMM:  17    -0.244214298043E+04   -0.55577E-02   -0.18318E-04 64885   0.444E-03    0.130E-02
RMM:  18    -0.244214721279E+04   -0.42324E-02   -0.16217E-04 63450   0.399E-03    0.879E-03
RMM:  19    -0.244214950467E+04   -0.22919E-02   -0.90051E-05 62618   0.282E-03    0.504E-03
RMM:  20    -0.244215047126E+04   -0.96659E-03   -0.30745E-05 61416   0.169E-03    0.307E-03
RMM:  21    -0.244215098082E+04   -0.50955E-03   -0.14798E-05 53528   0.114E-03    0.158E-03
RMM:  22    -0.244215119307E+04   -0.21226E-03   -0.63071E-06 52388   0.797E-04    0.654E-04
RMM:  23    -0.244215126258E+04   -0.69508E-04   -0.16654E-06 46738   0.468E-04    0.350E-04
RMM:  24    -0.244215128225E+04   -0.19670E-04   -0.36584E-07 41365   0.308E-04    0.171E-04
RMM:  25    -0.244215129110E+04   -0.88472E-05   -0.24297E-07 40622   0.295E-04
  30 F= -.24609990E+04 E0= -.24609427E+04  d E =-.275461E+01  mag=    -0.0000
       N       E                     dE             d eps       ncg     rms          rms(c)
DAV:   1    -0.244724730136E+04   -0.50960E+01   -0.19972E+02 98560   0.841E+00    0.794E+00
RMM:   2    -0.244388274017E+04    0.33646E+01   -0.55628E+00 73920   0.128E+00    0.424E+00
RMM:   3    -0.244227530359E+04    0.16074E+01   -0.32646E+00 73920   0.846E-01    0.606E-01
RMM:   4    -0.244229509276E+04   -0.19789E-01   -0.45503E-02 74982   0.117E-01    0.431E-01
RMM:   5    -0.244230269338E+04   -0.76006E-02   -0.43618E-03 75212   0.317E-02    0.445E-01
RMM:   6    -0.244229921318E+04    0.34802E-02   -0.13659E-02 73920   0.526E-02    0.160E-01
RMM:   7    -0.244230809909E+04   -0.88859E-02   -0.36801E-03 73920   0.270E-02    0.119E-01
RMM:   8    -0.244231957206E+04   -0.11473E-01   -0.26837E-03 73920   0.221E-02    0.977E-02
RMM:   9    -0.244232378376E+04   -0.42117E-02   -0.45397E-04 73920   0.906E-03    0.105E-01
RMM:  10    -0.244233336087E+04   -0.95771E-02   -0.21955E-03 73920   0.182E-02    0.468E-02
RMM:  11    -0.244234010111E+04   -0.67402E-02   -0.22896E-03 73920   0.165E-02    0.303E-02
RMM:  12    -0.244234201483E+04   -0.19137E-02   -0.57318E-04 73920   0.799E-03    0.206E-02
RMM:  13    -0.244234311028E+04   -0.10954E-02   -0.30350E-04 69648   0.566E-03    0.147E-02
RMM:  14    -0.244234345509E+04   -0.34481E-03   -0.93865E-05 63101   0.320E-03    0.106E-02
RMM:  15    -0.244234352532E+04   -0.70232E-04   -0.31126E-05 61600   0.207E-03    0.735E-03
RMM:  16    -0.244234351748E+04    0.78416E-05   -0.16573E-05 60778   0.141E-03
  31 F= -.24615726E+04 E0= -.24615158E+04  d E =-.573582E+00  mag=    -0.0000
       N       E                     dE             d eps       ncg     rms          rms(c)
DAV:   1    -0.244593365373E+04   -0.35901E+01   -0.14817E+02 98560   0.726E+00    0.692E+00
RMM:   2    -0.244335398495E+04    0.25797E+01   -0.38092E+00 73924   0.109E+00    0.369E+00
RMM:   3    -0.244212475766E+04    0.12292E+01   -0.24253E+00 73920   0.733E-01    0.529E-01
RMM:   4    -0.244214548436E+04   -0.20727E-01   -0.31200E-02 74787   0.984E-02    0.427E-01
RMM:   5    -0.244214462997E+04    0.85439E-03   -0.29884E-03 75158   0.267E-02    0.374E-01
RMM:   6    -0.244214633055E+04   -0.17006E-02   -0.64938E-03 73920   0.362E-02    0.214E-01
RMM:   7    -0.244215267555E+04   -0.63450E-02   -0.50905E-03 73920   0.314E-02    0.102E-01
RMM:   8    -0.244216453190E+04   -0.11856E-01   -0.28604E-03 73920   0.227E-02    0.132E-01
RMM:   9    -0.244216657161E+04   -0.20397E-02   -0.42469E-04 73920   0.881E-03    0.718E-02
RMM:  10    -0.244217569396E+04   -0.91223E-02   -0.20364E-03 73920   0.173E-02    0.447E-02
RMM:  11    -0.244218126096E+04   -0.55670E-02   -0.17201E-03 73920   0.145E-02    0.283E-02
RMM:  12    -0.244218324288E+04   -0.19819E-02   -0.59028E-04 73920   0.811E-03    0.182E-02
RMM:  13    -0.244218409077E+04   -0.84789E-03   -0.21043E-04 68010   0.476E-03    0.148E-02
RMM:  14    -0.244218439520E+04   -0.30443E-03   -0.79838E-05 62932   0.294E-03    0.101E-02
RMM:  15    -0.244218447336E+04   -0.78157E-04   -0.35836E-05 61829   0.224E-03    0.636E-03
RMM:  16    -0.244218448978E+04   -0.16422E-04   -0.13008E-05 60190   0.127E-03    0.493E-03
RMM:  17    -0.244218456555E+04   -0.75767E-04   -0.69038E-06 58410   0.972E-04    0.254E-03
RMM:  18    -0.244218464418E+04   -0.78636E-04   -0.30321E-06 46617   0.573E-04    0.171E-03
RMM:  19    -0.244218468694E+04   -0.42758E-04   -0.93583E-07 43181   0.388E-04    0.954E-04
RMM:  20    -0.244218472402E+04   -0.37083E-04   -0.83997E-07 44440   0.384E-04    0.486E-04
RMM:  21    -0.244218474071E+04   -0.16687E-04   -0.23088E-07 39516   0.300E-04    0.264E-04
RMM:  22    -0.244218474525E+04   -0.45349E-05   -0.96640E-08 37225   0.281E-04
  32 F= -.24616994E+04 E0= -.24616417E+04  d E =-.700402E+00  mag=     0.0000
       N       E                     dE             d eps       ncg     rms          rms(c)
DAV:   1    -0.244362546740E+04   -0.14407E+01   -0.55429E+01 98560   0.442E+00    0.418E+00
RMM:   2    -0.244268688071E+04    0.93859E+00   -0.13720E+00 73920   0.665E-01    0.221E+00
RMM:   3    -0.244224185382E+04    0.44503E+00   -0.82087E-01 73920   0.429E-01    0.342E-01
RMM:   4    -0.244227563942E+04   -0.33786E-01   -0.14024E-02 74623   0.627E-02    0.559E-01
RMM:   5    -0.244224508450E+04    0.30555E-01   -0.18518E-03 74787   0.205E-02    0.219E-01
RMM:   6    -0.244224800949E+04   -0.29250E-02   -0.14867E-03 74483   0.174E-02    0.148E-01
RMM:   7    -0.244225425987E+04   -0.62504E-02   -0.30130E-03 73920   0.235E-02    0.634E-02
RMM:   8    -0.244226022385E+04   -0.59640E-02   -0.10704E-03 73920   0.134E-02    0.674E-02
RMM:   9    -0.244226173427E+04   -0.15104E-02   -0.14236E-04 73119   0.498E-03    0.574E-02
RMM:  10    -0.244226558494E+04   -0.38507E-02   -0.45540E-04 73900   0.810E-03    0.327E-02
RMM:  11    -0.244227090862E+04   -0.53237E-02   -0.13401E-03 73920   0.124E-02    0.172E-02
RMM:  12    -0.244227229103E+04   -0.13824E-02   -0.29478E-04 71751   0.557E-03    0.122E-02
RMM:  13    -0.244227317776E+04   -0.88674E-03   -0.17442E-04 64691   0.414E-03    0.790E-03
RMM:  14    -0.244227346338E+04   -0.28561E-03   -0.55487E-05 62330   0.236E-03    0.527E-03
RMM:  15    -0.244227354335E+04   -0.79976E-04   -0.13567E-05 60085   0.129E-03    0.433E-03
RMM:  16    -0.244227357148E+04   -0.28127E-04   -0.46263E-06 50061   0.729E-04    0.296E-03
RMM:  17    -0.244227360803E+04   -0.36545E-04   -0.25051E-06 49961   0.593E-04    0.193E-03
RMM:  18    -0.244227364443E+04   -0.36407E-04   -0.14997E-06 47660   0.469E-04    0.126E-03
RMM:  19    -0.244227367052E+04   -0.26087E-04   -0.68601E-07 42980   0.333E-04    0.665E-04
RMM:  20    -0.244227368456E+04   -0.14036E-04   -0.16023E-07 38895   0.268E-04    0.401E-04
RMM:  21    -0.244227369865E+04   -0.14089E-04   -0.49263E-07 41420   0.311E-04    0.206E-04
RMM:  22    -0.244227370284E+04   -0.41944E-05   -0.12042E-08 36145   0.236E-04
  33 F= -.24618746E+04 E0= -.24618172E+04  d E =-.175204E+00  mag=    -0.0000
       N       E                     dE             d eps       ncg     rms          rms(c)
DAV:   1    -0.244227381094E+04   -0.11229E-03   -0.16711E-01 98560   0.243E-01    0.232E-01
RMM:   2    -0.244227088652E+04    0.29244E-02   -0.43722E-03 73922   0.371E-02    0.122E-01
RMM:   3    -0.244226928627E+04    0.16002E-02   -0.24798E-03 73920   0.237E-02    0.201E-02
RMM:   4    -0.244226941519E+04   -0.12892E-03   -0.44434E-05 71543   0.350E-03    0.379E-02
RMM:   5    -0.244226925377E+04    0.16142E-03   -0.66101E-06 55925   0.132E-03    0.116E-02
RMM:   6    -0.244226926848E+04   -0.14718E-04   -0.44422E-06 55989   0.102E-03    0.817E-03
RMM:   7    -0.244226931506E+04   -0.46572E-04   -0.64222E-06 57591   0.108E-03    0.354E-03
RMM:   8    -0.244226937632E+04   -0.61261E-04   -0.22841E-06 54116   0.642E-04    0.514E-03
RMM:   9    -0.244226939924E+04   -0.22926E-04   -0.44774E-07 43024   0.346E-04    0.270E-03
RMM:  10    -0.244226945643E+04   -0.57187E-04   -0.18452E-06 49336   0.523E-04    0.175E-03
RMM:  11    -0.244226953035E+04   -0.73923E-04   -0.46553E-06 54472   0.707E-04    0.924E-04
RMM:  12    -0.244226955822E+04   -0.27865E-04   -0.11372E-06 45759   0.402E-04    0.648E-04
RMM:  13    -0.244226958344E+04   -0.25221E-04   -0.99162E-07 44140   0.379E-04    0.411E-04
RMM:  14    -0.244226959709E+04   -0.13650E-04   -0.39403E-07 40927   0.322E-04    0.281E-04
RMM:  15    -0.244226960480E+04   -0.77119E-05   -0.22245E-07 39789   0.300E-04
  34 F= -.24618749E+04 E0= -.24618176E+04  d E =-.175533E+00  mag=    -0.0000
       N       E                     dE             d eps       ncg     rms          rms(c)
DAV:   1    -0.244232603554E+04   -0.56438E-01   -0.12542E+00 98560   0.789E-01    0.326E-01
RMM:   2    -0.244232449585E+04    0.15397E-02   -0.14970E-02 74142   0.819E-02    0.176E-01
RMM:   3    -0.244232512860E+04   -0.63275E-03   -0.19099E-03 74475   0.236E-02    0.121E-01
RMM:   4    -0.244232413298E+04    0.99562E-03   -0.16791E-04 74831   0.642E-03    0.766E-02
RMM:   5    -0.244232359092E+04    0.54206E-03   -0.65158E-05 73533   0.377E-03    0.305E-02
RMM:   6    -0.244232351943E+04    0.71489E-04   -0.13805E-05 58456   0.189E-03    0.112E-02
RMM:   7    -0.244232353158E+04   -0.12147E-04   -0.40711E-06 54083   0.114E-03    0.898E-03
RMM:   8    -0.244232353389E+04   -0.23075E-05   -0.10633E-06 53254   0.593E-04
  35 F= -.24619313E+04 E0= -.24618747E+04  d E =-.563710E-01  mag=    -0.0000
       N       E                     dE             d eps       ncg     rms          rms(c)
DAV:   1    -0.244236358958E+04   -0.40058E-01   -0.36939E+00 84480   0.135E+00    0.559E-01
RMM:   2    -0.244235888079E+04    0.47088E-02   -0.44074E-02 74144   0.141E-01    0.301E-01
RMM:   3    -0.244236111081E+04   -0.22300E-02   -0.56146E-03 74462   0.404E-02    0.216E-01
RMM:   4    -0.244235763890E+04    0.34719E-02   -0.50547E-04 75281   0.111E-02    0.129E-01
RMM:   5    -0.244235619268E+04    0.14462E-02   -0.19197E-04 74076   0.645E-03    0.530E-02
RMM:   6    -0.244235604366E+04    0.14902E-03   -0.45323E-05 71957   0.324E-03    0.232E-02
RMM:   7    -0.244235618679E+04   -0.14313E-03   -0.87409E-06 56259   0.148E-03    0.357E-02
RMM:   8    -0.244235610907E+04    0.77720E-04   -0.64734E-06 55752   0.131E-03    0.833E-03
RMM:   9    -0.244235618004E+04   -0.70967E-04   -0.34109E-06 55611   0.919E-04    0.486E-03
RMM:  10    -0.244235624561E+04   -0.65566E-04   -0.22604E-06 55470   0.671E-04    0.272E-03
RMM:  11    -0.244235631245E+04   -0.66848E-04   -0.20602E-06 48801   0.546E-04    0.178E-03
RMM:  12    -0.244235639888E+04   -0.86429E-04   -0.53095E-06 57045   0.784E-04    0.117E-03
RMM:  13    -0.244235643544E+04   -0.36553E-04   -0.15342E-06 44938   0.444E-04    0.838E-04
RMM:  14    -0.244235645830E+04   -0.22868E-04   -0.89933E-07 43960   0.399E-04    0.627E-04
RMM:  15    -0.244235647354E+04   -0.15237E-04   -0.62054E-07 44008   0.378E-04    0.374E-04
RMM:  16    -0.244235648083E+04   -0.72857E-05   -0.21138E-07 39874   0.297E-04
  36 F= -.24619684E+04 E0= -.24619131E+04  d E =-.934722E-01  mag=    -0.0000
       N       E                     dE             d eps       ncg     rms          rms(c)
DAV:   1    -0.244240092697E+04   -0.44453E-01   -0.15136E+00 98560   0.828E-01    0.343E-01
RMM:   2    -0.244239927141E+04    0.16556E-02   -0.19134E-02 73942   0.939E-02    0.180E-01
RMM:   3    -0.244240203271E+04   -0.27613E-02   -0.22977E-03 74923   0.264E-02    0.180E-01
RMM:   4    -0.244239890135E+04    0.31314E-02   -0.23174E-04 74512   0.741E-03    0.765E-02
RMM:   5    -0.244239842778E+04    0.47357E-03   -0.82198E-05 72821   0.419E-03    0.317E-02
RMM:   6    -0.244239837162E+04    0.56160E-04   -0.13449E-05 57638   0.197E-03    0.116E-02
RMM:   7    -0.244239837693E+04   -0.53130E-05   -0.39416E-06 53694   0.120E-03
  37 F= -.24620089E+04 E0= -.24619532E+04  d E =-.405047E-01  mag=     0.0000
       N       E                     dE             d eps       ncg     rms          rms(c)
DAV:   1    -0.244242553918E+04   -0.27168E-01   -0.28600E+00 95920   0.114E+00    0.472E-01
RMM:   2    -0.244242266669E+04    0.28725E-02   -0.36182E-02 73944   0.129E-01    0.252E-01
RMM:   3    -0.244244335188E+04   -0.20685E-01   -0.38908E-03 74885   0.339E-02    0.442E-01
RMM:   4    -0.244242116351E+04    0.22188E-01   -0.92411E-04 75443   0.145E-02    0.830E-02
RMM:   5    -0.244242088581E+04    0.27770E-03   -0.17174E-04 73920   0.610E-03    0.481E-02
RMM:   6    -0.244242133300E+04   -0.44720E-03   -0.37870E-05 68436   0.289E-03    0.727E-02
RMM:   7    -0.244242073531E+04    0.59769E-03   -0.16861E-05 61205   0.190E-03    0.149E-02
RMM:   8    -0.244242073656E+04   -0.12540E-05   -0.49024E-06 53878   0.133E-03
  38 F= -.24620294E+04 E0= -.24619733E+04  d E =-.610204E-01  mag=    -0.0000
       N       E                     dE             d eps       ncg     rms          rms(c)
DAV:   1    -0.244243637702E+04   -0.15642E-01   -0.32499E-01 98560   0.383E-01    0.174E-01
RMM:   2    -0.244243585741E+04    0.51962E-03   -0.49147E-03 74107   0.460E-02    0.896E-02
RMM:   3    -0.244243597812E+04   -0.12071E-03   -0.48730E-04 74391   0.119E-02    0.582E-02
RMM:   4    -0.244243604605E+04   -0.67932E-04   -0.54808E-05 72795   0.370E-03    0.593E-02
RMM:   5    -0.244243569379E+04    0.35227E-03   -0.24281E-05 64598   0.234E-03    0.196E-02
RMM:   6    -0.244243566919E+04    0.24592E-04   -0.71453E-06 54307   0.146E-03    0.587E-03
RMM:   7    -0.244243567736E+04   -0.81716E-05   -0.17686E-06 53586   0.782E-04
  39 F= -.24620384E+04 E0= -.24619819E+04  d E =-.902189E-02  mag=    -0.0000
       N       E                     dE             d eps       ncg     rms          rms(c)
DAV:   1    -0.244244221353E+04   -0.65443E-02   -0.16892E-01 98560   0.276E-01    0.125E-01
RMM:   2    -0.244244194611E+04    0.26742E-03   -0.25569E-03 74112   0.332E-02    0.651E-02
RMM:   3    -0.244244250914E+04   -0.56302E-03   -0.24612E-04 74381   0.842E-03    0.782E-02
RMM:   4    -0.244244190639E+04    0.60274E-03   -0.35081E-05 68691   0.292E-03    0.297E-02
RMM:   5    -0.244244184631E+04    0.60078E-04   -0.13770E-05 58151   0.189E-03    0.139E-02
RMM:   6    -0.244244185826E+04   -0.11945E-04   -0.42607E-06 53732   0.115E-03    0.151E-02
RMM:   7    -0.244244183361E+04    0.24645E-04   -0.12186E-06 53298   0.622E-04    0.458E-03
RMM:   8    -0.244244183180E+04    0.18115E-05   -0.24670E-07 44427   0.407E-04
  40 F= -.24620403E+04 E0= -.24619835E+04  d E =-.109134E-01  mag=    -0.0000
       N       E                     dE             d eps       ncg     rms          rms(c)
DAV:   1    -0.244245097928E+04   -0.91457E-02   -0.19676E-01 98560   0.292E-01    0.119E-01
RMM:   2    -0.244245078633E+04    0.19295E-03   -0.25712E-03 73920   0.335E-02    0.656E-02
RMM:   3    -0.244245082510E+04   -0.38772E-04   -0.27842E-04 75030   0.919E-03    0.409E-02
RMM:   4    -0.244245091046E+04   -0.85363E-04   -0.28883E-05 67254   0.266E-03    0.460E-02
RMM:   5    -0.244245068066E+04    0.22980E-03   -0.11948E-05 57393   0.174E-03    0.130E-02
RMM:   6    -0.244245066792E+04    0.12748E-04   -0.30505E-06 53562   0.991E-04    0.456E-03
RMM:   7    -0.244245066853E+04   -0.61626E-06   -0.11348E-06 53436   0.601E-04
  41 F= -.24620475E+04 E0= -.24619905E+04  d E =-.713430E-02  mag=    -0.0000
       N       E                     dE             d eps       ncg     rms          rms(c)
DAV:   1    -0.244247182503E+04   -0.21157E-01   -0.17700E+00 78320   0.876E-01    0.357E-01
RMM:   2    -0.244247011436E+04    0.17107E-02   -0.23093E-02 73920   0.100E-01    0.197E-01
RMM:   3    -0.244247357883E+04   -0.34645E-02   -0.24564E-03 75044   0.272E-02    0.205E-01
RMM:   4    -0.244247017357E+04    0.34053E-02   -0.29346E-04 73984   0.819E-03    0.108E-01
RMM:   5    -0.244246911626E+04    0.10573E-02   -0.14547E-04 73933   0.568E-03    0.371E-02
RMM:   6    -0.244246913188E+04   -0.15615E-04   -0.25724E-05 65475   0.251E-03    0.336E-02
RMM:   7    -0.244246902886E+04    0.10302E-03   -0.52108E-06 54803   0.118E-03    0.158E-02
RMM:   8    -0.244246901776E+04    0.11101E-04   -0.52196E-06 55848   0.117E-03    0.650E-03
RMM:   9    -0.244246902678E+04   -0.90246E-05   -0.20999E-06 53926   0.754E-04
  42 F= -.24620607E+04 E0= -.24620034E+04  d E =-.203451E-01  mag=     0.0000
       N       E                     dE             d eps       ncg     rms          rms(c)
DAV:   1    -0.244248063236E+04   -0.11615E-01   -0.70767E+00 73920   0.175E+00    0.712E-01
RMM:   2    -0.244247370804E+04    0.69243E-02   -0.92311E-02 73920   0.201E-01    0.393E-01
RMM:   3    -0.244247702437E+04   -0.33163E-02   -0.10005E-02 75005   0.550E-02    0.278E-01
RMM:   4    -0.244247715321E+04   -0.12884E-03   -0.10316E-03 73980   0.155E-02    0.264E-01
RMM:   5    -0.244246991973E+04    0.72335E-02   -0.51052E-04 74956   0.105E-02    0.758E-02
RMM:   6    -0.244246950163E+04    0.41810E-03   -0.98891E-05 73884   0.478E-03    0.277E-02
RMM:   7    -0.244246949908E+04    0.25487E-05   -0.26873E-05 64683   0.249E-03
  43 F= -.24620507E+04 E0= -.24619926E+04  d E =-.103418E-01  mag=    -0.0000
       N       E                     dE             d eps       ncg     rms          rms(c)
DAV:   1    -0.244247917953E+04   -0.96779E-02   -0.34523E+00 88880   0.122E+00    0.499E-01
RMM:   2    -0.244247603641E+04    0.31431E-02   -0.45286E-02 73920   0.141E-01    0.274E-01
RMM:   3    -0.244247769483E+04   -0.16584E-02   -0.48730E-03 75014   0.384E-02    0.189E-01
RMM:   4    -0.244247812235E+04   -0.42751E-03   -0.50801E-04 73980   0.109E-02    0.187E-01
RMM:   5    -0.244247448312E+04    0.36392E-02   -0.23942E-04 74873   0.720E-03    0.526E-02
RMM:   6    -0.244247437283E+04    0.11030E-03   -0.45304E-05 71235   0.332E-03    0.298E-02
RMM:   7    -0.244247437185E+04    0.97192E-06   -0.71288E-06 55805   0.134E-03
  44 F= -.24620629E+04 E0= -.24620054E+04  d E =-.225578E-01  mag=     0.0000
       N       E                     dE             d eps       ncg     rms          rms(c)
DAV:   1    -0.244248315123E+04   -0.87784E-02   -0.68855E-01 98560   0.542E-01    0.223E-01
RMM:   2    -0.244248249911E+04    0.65212E-03   -0.98889E-03 73920   0.652E-02    0.123E-01
RMM:   3    -0.244248260925E+04   -0.11014E-03   -0.11190E-03 75014   0.183E-02    0.667E-02
RMM:   4    -0.244248285189E+04   -0.24264E-03   -0.82744E-05 73921   0.447E-03    0.757E-02
RMM:   5    -0.244248228192E+04    0.56997E-03   -0.35639E-05 68425   0.285E-03    0.255E-02
RMM:   6    -0.244248224626E+04    0.35657E-04   -0.96336E-06 56025   0.163E-03    0.104E-02
RMM:   7    -0.244248225603E+04   -0.97662E-05   -0.21142E-06 53488   0.832E-04
  45 F= -.24620716E+04 E0= -.24620142E+04  d E =-.870955E-02  mag=     0.0000
       N       E                     dE             d eps       ncg     rms          rms(c)
DAV:   1    -0.244248425469E+04   -0.20084E-02   -0.36115E-01 98560   0.393E-01    0.163E-01
RMM:   2    -0.244248391389E+04    0.34080E-03   -0.51692E-03 73920   0.472E-02    0.906E-02
RMM:   3    -0.244248406871E+04   -0.15482E-03   -0.59024E-04 75016   0.133E-02    0.578E-02
RMM:   4    -0.244248396796E+04    0.10074E-03   -0.40431E-05 70978   0.314E-03    0.476E-02
RMM:   5    -0.244248376070E+04    0.20726E-03   -0.18994E-05 61762   0.219E-03    0.180E-02
RMM:   6    -0.244248374224E+04    0.18461E-04   -0.56308E-06 54233   0.127E-03    0.922E-03
RMM:   7    -0.244248374234E+04   -0.10766E-06   -0.12746E-06 53144   0.650E-04
  46 F= -.24620737E+04 E0= -.24620164E+04  d E =-.107778E-01  mag=     0.0000
       N       E                     dE             d eps       ncg     rms          rms(c)
DAV:   1    -0.244249959709E+04   -0.15855E-01   -0.77543E-01 85360   0.571E-01    0.250E-01
RMM:   2    -0.244249826261E+04    0.13345E-02   -0.11676E-02 73928   0.704E-02    0.129E-01
RMM:   3    -0.244249801007E+04    0.25254E-03   -0.13172E-03 75158   0.195E-02    0.491E-02
RMM:   4    -0.244249875417E+04   -0.74411E-03   -0.82045E-05 73920   0.449E-03    0.870E-02
RMM:   5    -0.244249795209E+04    0.80208E-03   -0.34576E-05 67972   0.282E-03    0.268E-02
RMM:   6    -0.244249789506E+04    0.57026E-04   -0.11130E-05 57271   0.168E-03    0.926E-03
RMM:   7    -0.244249791769E+04   -0.22625E-04   -0.25500E-06 53454   0.887E-04    0.150E-02
RMM:   8    -0.244249789486E+04    0.22830E-04   -0.10607E-06 52830   0.558E-04    0.379E-03
RMM:   9    -0.244249790079E+04   -0.59287E-05   -0.10842E-06 52756   0.517E-04
  47 F= -.24620819E+04 E0= -.24620246E+04  d E =-.821647E-02  mag=    -0.0000
       N       E                     dE             d eps       ncg     rms          rms(c)
DAV:   1    -0.244250743945E+04   -0.95446E-02   -0.67601E-01 88000   0.533E-01    0.234E-01
RMM:   2    -0.244250626666E+04    0.11728E-02   -0.10178E-02 73922   0.657E-02    0.120E-01
RMM:   3    -0.244250601297E+04    0.25368E-03   -0.11538E-03 75156   0.183E-02    0.421E-02
RMM:   4    -0.244250641426E+04   -0.40129E-03   -0.71461E-05 73918   0.429E-03    0.640E-02
RMM:   5    -0.244250603729E+04    0.37697E-03   -0.20493E-05 62866   0.222E-03    0.294E-02
RMM:   6    -0.244250595570E+04    0.81591E-04   -0.94741E-06 56082   0.155E-03    0.797E-03
RMM:   7    -0.244250597027E+04   -0.14575E-04   -0.23143E-06 53322   0.847E-04    0.114E-02
RMM:   8    -0.244250595805E+04    0.12226E-04   -0.59732E-07 49601   0.463E-04    0.367E-03
RMM:   9    -0.244250596360E+04   -0.55479E-05   -0.94242E-07 51857   0.487E-04
  48 F= -.24620844E+04 E0= -.24620271E+04  d E =-.107021E-01  mag=    -0.0000
       N       E                     dE             d eps       ncg     rms          rms(c)
DAV:   1    -0.244252225955E+04   -0.16301E-01   -0.71863E-01 84480   0.541E-01    0.224E-01
RMM:   2    -0.244252157690E+04    0.68265E-03   -0.91461E-03 73920   0.634E-02    0.121E-01
RMM:   3    -0.244252139179E+04    0.18511E-03   -0.98386E-04 75242   0.174E-02    0.379E-02
RMM:   4    -0.244252187082E+04   -0.47904E-03   -0.54789E-05 72487   0.375E-03    0.685E-02
RMM:   5    -0.244252137030E+04    0.50052E-03   -0.18046E-05 61738   0.208E-03    0.224E-02
RMM:   6    -0.244252133442E+04    0.35880E-04   -0.67331E-06 55109   0.135E-03    0.779E-03
RMM:   7    -0.244252135203E+04   -0.17606E-04   -0.20356E-06 53178   0.800E-04    0.125E-02
RMM:   8    -0.244252133739E+04    0.14640E-04   -0.94396E-07 52376   0.535E-04    0.265E-03
RMM:   9    -0.244252134091E+04   -0.35184E-05   -0.15036E-07 40311   0.357E-04
  49 F= -.24620912E+04 E0= -.24620338E+04  d E =-.682656E-02  mag=    -0.0000
       N       E                     dE             d eps       ncg     rms          rms(c)
DAV:   1    -0.244253695876E+04   -0.15621E-01   -0.10941E+00 75680   0.667E-01    0.276E-01
RMM:   2    -0.244253593937E+04    0.10194E-02   -0.13920E-02 73920   0.782E-02    0.150E-01
RMM:   3    -0.244253566302E+04    0.27635E-03   -0.14953E-03 75235   0.215E-02    0.466E-02
RMM:   4    -0.244253638689E+04   -0.72387E-03   -0.83667E-05 73873   0.463E-03    0.842E-02
RMM:   5    -0.244253562936E+04    0.75752E-03   -0.27764E-05 65799   0.253E-03    0.277E-02
RMM:   6    -0.244253557133E+04    0.58031E-04   -0.99680E-06 56662   0.161E-03    0.963E-03
RMM:   7    -0.244253559532E+04   -0.23987E-04   -0.28781E-06 53350   0.947E-04    0.153E-02
RMM:   8    -0.244253557113E+04    0.24193E-04   -0.14059E-06 52992   0.644E-04    0.320E-03
RMM:   9    -0.244253557357E+04   -0.24460E-05   -0.36421E-07 44992   0.419E-04
  50 F= -.24620949E+04 E0= -.24620374E+04  d E =-.104748E-01  mag=     0.0000
       N       E                     dE             d eps       ncg     rms          rms(c)
DAV:   1    -0.244254612205E+04   -0.10551E-01   -0.88822E-01 75680   0.599E-01    0.246E-01
RMM:   2    -0.244254530980E+04    0.81225E-03   -0.11434E-02 73920   0.708E-02    0.134E-01
RMM:   3    -0.244254526341E+04    0.46386E-04   -0.12844E-03 75021   0.198E-02    0.537E-02
RMM:   4    -0.244254556935E+04   -0.30594E-03   -0.65513E-05 72966   0.404E-03    0.699E-02
RMM:   5    -0.244254506102E+04    0.50833E-03   -0.24792E-05 65155   0.258E-03    0.182E-02
RMM:   6    -0.244254504863E+04    0.12394E-04   -0.59415E-06 54881   0.132E-03    0.921E-03
RMM:   7    -0.244254505889E+04   -0.10269E-04   -0.16229E-06 53146   0.733E-04    0.117E-02
[...]
RMM:  11    -0.244246168270E+04   -0.26679E-02   -0.31612E-04 73881   0.712E-03    0.234E-02
RMM:  12    -0.244246509421E+04   -0.34115E-02   -0.68635E-04 73920   0.968E-03    0.133E-02
RMM:  13    -0.244246640471E+04   -0.13105E-02   -0.29288E-04 72585   0.595E-03    0.935E-03
RMM:  14    -0.244246696074E+04   -0.55603E-03   -0.11717E-04 66032   0.372E-03    0.613E-03
RMM:  15    -0.244246710106E+04   -0.14032E-03   -0.18817E-05 60745   0.157E-03    0.496E-03
RMM:  16    -0.244246719141E+04   -0.90356E-04   -0.66563E-06 54052   0.974E-04    0.334E-03
RMM:  17    -0.244246729635E+04   -0.10493E-03   -0.93892E-06 59369   0.112E-03    0.169E-03
RMM:  18    -0.244246731968E+04   -0.23334E-04   -0.10345E-06 45095   0.388E-04    0.119E-03
RMM:  19    -0.244246734320E+04   -0.23516E-04   -0.75420E-07 45406   0.373E-04    0.563E-04
RMM:  20    -0.244246735734E+04   -0.14145E-04   -0.44893E-07 43484   0.324E-04    0.243E-04
RMM:  21    -0.244246736182E+04   -0.44728E-05   -0.10455E-07 38655   0.248E-04
  86 F= -.24625055E+04 E0= -.24624615E+04  d E =-.769744E-01  mag=     0.0000
       N       E                     dE             d eps       ncg     rms          rms(c)
DAV:   1    -0.244272197966E+04   -0.25462E+00   -0.26619E+01 91520   0.323E+00    0.195E+00
RMM:   2    -0.244257234223E+04    0.14964E+00   -0.46098E-01 73920   0.436E-01    0.990E-01
RMM:   3    -0.244252946425E+04    0.42878E-01   -0.73926E-02 74401   0.141E-01    0.496E-01
RMM:   4    -0.244252774364E+04    0.17206E-02   -0.14018E-02 74267   0.576E-02    0.394E-01
RMM:   5    -0.244251278898E+04    0.14955E-01   -0.16621E-03 74830   0.191E-02    0.223E-01
RMM:   6    -0.244250846499E+04    0.43240E-02   -0.62889E-04 74686   0.114E-02    0.117E-01
RMM:   7    -0.244250853745E+04   -0.72461E-04   -0.13630E-04 73930   0.521E-03    0.114E-01
RMM:   8    -0.244250742152E+04    0.11159E-02   -0.13702E-04 73866   0.533E-03    0.452E-02
RMM:   9    -0.244250751628E+04   -0.94759E-04   -0.84525E-05 73920   0.426E-03    0.237E-02
RMM:  10    -0.244250775679E+04   -0.24051E-03   -0.51655E-05 69172   0.307E-03    0.138E-02
RMM:  11    -0.244250811053E+04   -0.35374E-03   -0.21311E-05 61974   0.184E-03    0.942E-03
RMM:  12    -0.244250867225E+04   -0.56172E-03   -0.42919E-05 64661   0.229E-03    0.529E-03
RMM:  13    -0.244250892797E+04   -0.25572E-03   -0.24250E-05 62352   0.173E-03    0.362E-03
RMM:  14    -0.244250915973E+04   -0.23176E-03   -0.97360E-06 59186   0.107E-03    0.258E-03
RMM:  15    -0.244250927331E+04   -0.11358E-03   -0.17302E-06 48157   0.532E-04    0.194E-03
RMM:  16    -0.244250941079E+04   -0.13749E-03   -0.88181E-07 46735   0.496E-04    0.126E-03
RMM:  17    -0.244250955910E+04   -0.14830E-03   -0.12468E-06 49638   0.508E-04    0.647E-04
RMM:  18    -0.244250959214E+04   -0.33043E-04   -0.98373E-08 39430   0.277E-04    0.449E-04
RMM:  19    -0.244250961931E+04   -0.27175E-04   -0.34269E-07 41485   0.323E-04    0.203E-04
RMM:  20    -0.244250962992E+04   -0.10604E-04   -0.21212E-07 39630   0.301E-04    0.926E-05
RMM:  21    -0.244250963211E+04   -0.21938E-05   -0.45070E-08 37283   0.273E-04
  87 F= -.24625144E+04 E0= -.24624693E+04  d E =-.858717E-01  mag=    -0.0000
       N       E                     dE             d eps       ncg     rms          rms(c)
DAV:   1    -0.244251899132E+04   -0.93614E-02   -0.21118E+00 98560   0.908E-01    0.552E-01
RMM:   2    -0.244250682523E+04    0.12166E-01   -0.37245E-02 73920   0.123E-01    0.278E-01
RMM:   3    -0.244250328532E+04    0.35399E-02   -0.57854E-03 74479   0.393E-02    0.145E-01
RMM:   4    -0.244250352158E+04   -0.23626E-03   -0.11016E-03 74216   0.161E-02    0.130E-01
RMM:   5    -0.244250155517E+04    0.19664E-02   -0.15699E-04 74530   0.583E-03    0.573E-02
RMM:   6    -0.244250136300E+04    0.19217E-03   -0.54416E-05 73018   0.341E-03    0.336E-02
RMM:   7    -0.244250141184E+04   -0.48845E-04   -0.10577E-05 57443   0.158E-03    0.330E-02
RMM:   8    -0.244250141188E+04   -0.39159E-07   -0.11404E-05 58922   0.161E-03
  88 F= -.24625156E+04 E0= -.24624708E+04  d E =-.871175E-01  mag=     0.0000
       N       E                     dE             d eps       ncg     rms          rms(c)
DAV:   1    -0.244255081088E+04   -0.49399E-01   -0.86918E-01 98560   0.617E-01    0.299E-01
RMM:   2    -0.244254833173E+04    0.24792E-02   -0.14688E-02 73948   0.801E-02    0.155E-01
RMM:   3    -0.244254849646E+04   -0.16472E-03   -0.16467E-03 74705   0.216E-02    0.113E-01
RMM:   4    -0.244254839972E+04    0.96734E-04   -0.23479E-04 74895   0.745E-03    0.987E-02
RMM:   5    -0.244254732496E+04    0.10748E-02   -0.10134E-04 73913   0.459E-03    0.323E-02
RMM:   6    -0.244254754246E+04   -0.21750E-03   -0.20617E-05 63111   0.213E-03    0.456E-02
RMM:   7    -0.244254734688E+04    0.19559E-03   -0.10106E-05 57119   0.154E-03    0.114E-02
RMM:   8    -0.244254743323E+04   -0.86357E-04   -0.52403E-06 56392   0.112E-03    0.687E-03
RMM:   9    -0.244254752377E+04   -0.90536E-04   -0.37044E-06 56981   0.856E-04    0.384E-03
RMM:  10    -0.244254762156E+04   -0.97792E-04   -0.38984E-06 57525   0.746E-04    0.232E-03
RMM:  11    -0.244254770487E+04   -0.83303E-04   -0.31469E-06 51537   0.641E-04    0.158E-03
RMM:  12    -0.244254778189E+04   -0.77029E-04   -0.44117E-06 56510   0.736E-04    0.102E-03
RMM:  13    -0.244254782284E+04   -0.40940E-04   -0.20461E-06 49161   0.510E-04    0.690E-04
RMM:  14    -0.244254784183E+04   -0.18991E-04   -0.73361E-07 43394   0.371E-04    0.504E-04
RMM:  15    -0.244254785238E+04   -0.10555E-04   -0.33316E-07 42410   0.339E-04    0.347E-04
RMM:  16    -0.244254786194E+04   -0.95550E-05   -0.29846E-07 42085   0.326E-04
  89 F= -.24625634E+04 E0= -.24625186E+04  d E =-.477654E-01  mag=    -0.0000
       N       E                     dE             d eps       ncg     rms          rms(c)
DAV:   1    -0.244262939845E+04   -0.81546E-01   -0.42797E+00 98560   0.137E+00    0.663E-01
RMM:   2    -0.244261801540E+04    0.11383E-01   -0.72678E-02 73948   0.178E-01    0.343E-01
RMM:   3    -0.244261767134E+04    0.34406E-03   -0.80025E-03 74751   0.479E-02    0.231E-01
RMM:   4    -0.244261889607E+04   -0.12247E-02   -0.11659E-03 74902   0.166E-02    0.226E-01
RMM:   5    -0.244261275294E+04    0.61431E-02   -0.45631E-04 74588   0.974E-03    0.654E-02
RMM:   6    -0.244261357220E+04   -0.81926E-03   -0.98542E-05 73848   0.455E-03    0.963E-02
RMM:   7    -0.244261247470E+04    0.10975E-02   -0.41604E-05 70140   0.291E-03    0.238E-02
RMM:   8    -0.244261252793E+04   -0.53230E-04   -0.12586E-05 58723   0.179E-03    0.136E-02
RMM:   9    -0.244261260295E+04   -0.75028E-04   -0.57639E-06 56661   0.125E-03    0.662E-03
RMM:  10    -0.244261269578E+04   -0.92828E-04   -0.46012E-06 57654   0.955E-04    0.344E-03
RMM:  11    -0.244261278032E+04   -0.84541E-04   -0.30213E-06 55878   0.692E-04    0.227E-03
RMM:  12    -0.244261287152E+04   -0.91203E-04   -0.43978E-06 54486   0.723E-04    0.143E-03
RMM:  13    -0.244261293576E+04   -0.64236E-04   -0.36157E-06 54137   0.680E-04    0.960E-04
RMM:  14    -0.244261296814E+04   -0.32381E-04   -0.14758E-06 48189   0.450E-04    0.710E-04
RMM:  15    -0.244261298595E+04   -0.17807E-04   -0.70530E-07 44190   0.361E-04    0.479E-04
RMM:  16    -0.244261299881E+04   -0.12857E-04   -0.42509E-07 43502   0.329E-04    0.331E-04
RMM:  17    -0.244261301057E+04   -0.11766E-04   -0.31256E-07 41474   0.312E-04    0.196E-04
RMM:  18    -0.244261301584E+04   -0.52688E-05   -0.11516E-07 39494   0.288E-04
  90 F= -.24626315E+04 E0= -.24625869E+04  d E =-.115857E+00  mag=    -0.0000
       N       E                     dE             d eps       ncg     rms          rms(c)
DAV:   1    -0.244266078937E+04   -0.47779E-01   -0.17134E+01 73920   0.274E+00    0.133E+00
RMM:   2    -0.244261485033E+04    0.45939E-01   -0.29165E-01 73948   0.357E-01    0.684E-01
RMM:   3    -0.244260639739E+04    0.84529E-02   -0.32502E-02 74762   0.966E-02    0.394E-01
RMM:   4    -0.244261827654E+04   -0.11879E-01   -0.46523E-03 74931   0.336E-02    0.448E-01
RMM:   5    -0.244259416947E+04    0.24107E-01   -0.13932E-03 74676   0.170E-02    0.126E-01
RMM:   6    -0.244259572310E+04   -0.15536E-02   -0.35934E-04 74876   0.883E-03    0.144E-01
RMM:   7    -0.244259341856E+04    0.23045E-02   -0.10644E-04 73449   0.459E-03    0.503E-02
RMM:   8    -0.244259359718E+04   -0.17861E-03   -0.50858E-05 70928   0.334E-03    0.270E-02
RMM:   9    -0.244259389259E+04   -0.29541E-03   -0.24767E-05 63594   0.237E-03    0.131E-02
RMM:  10    -0.244259422451E+04   -0.33192E-03   -0.20072E-05 61861   0.194E-03    0.687E-03
RMM:  11    -0.244259449342E+04   -0.26891E-03   -0.13219E-05 60074   0.142E-03    0.458E-03
RMM:  12    -0.244259478179E+04   -0.28837E-03   -0.19821E-05 61843   0.153E-03    0.289E-03
RMM:  13    -0.244259496677E+04   -0.18498E-03   -0.15000E-05 60227   0.130E-03    0.196E-03
RMM:  14    -0.244259504934E+04   -0.82567E-04   -0.52067E-06 52425   0.773E-04    0.146E-03
RMM:  15    -0.244259509461E+04   -0.45267E-04   -0.24374E-06 52626   0.588E-04    0.963E-04
RMM:  16    -0.244259512195E+04   -0.27346E-04   -0.10166E-06 46417   0.399E-04    0.661E-04
RMM:  17    -0.244259514567E+04   -0.23719E-04   -0.94300E-07 46812   0.402E-04    0.369E-04
RMM:  18    -0.244259515528E+04   -0.96092E-05   -0.19570E-07 40310   0.273E-04
  91 F= -.24626196E+04 E0= -.24625755E+04  d E =-.103957E+00  mag=    -0.0000
       N       E                     dE             d eps       ncg     rms          rms(c)
DAV:   1    -0.244264965169E+04   -0.54506E-01   -0.53248E+00 75680   0.153E+00    0.737E-01
RMM:   2    -0.244263571978E+04    0.13932E-01   -0.89879E-02 73948   0.199E-01    0.382E-01
RMM:   3    -0.244263439990E+04    0.13199E-02   -0.10014E-02 74736   0.536E-02    0.241E-01
RMM:   4    -0.244263733138E+04   -0.29315E-02   -0.14470E-03 74904   0.186E-02    0.254E-01
RMM:   5    -0.244262947842E+04    0.78530E-02   -0.52042E-04 74612   0.104E-02    0.712E-02
RMM:   6    -0.244263033551E+04   -0.85709E-03   -0.11750E-04 73920   0.497E-03    0.100E-01
RMM:   7    -0.244262911054E+04    0.12250E-02   -0.46188E-05 70800   0.304E-03    0.263E-02
RMM:   8    -0.244262910581E+04    0.47245E-05   -0.14981E-05 59667   0.195E-03
  92 F= -.24626502E+04 E0= -.24626058E+04  d E =-.134580E+00  mag=    -0.0000
       N       E                     dE             d eps       ncg     rms          rms(c)
DAV:   1    -0.244269128125E+04   -0.62171E-01   -0.20773E+00 98560   0.966E-01    0.382E-01
RMM:   2    -0.244268915417E+04    0.21271E-02   -0.31887E-02 73996   0.119E-01    0.203E-01
RMM:   3    -0.244268993121E+04   -0.77704E-03   -0.30004E-03 75108   0.304E-02    0.132E-01
RMM:   4    -0.244268915406E+04    0.77715E-03   -0.27356E-04 74952   0.825E-03    0.994E-02
RMM:   5    -0.244268815605E+04    0.99801E-03   -0.11058E-04 73868   0.503E-03    0.344E-02
RMM:   6    -0.244268835185E+04   -0.19581E-03   -0.25352E-05 65954   0.246E-03    0.455E-02
RMM:   7    -0.244268811569E+04    0.23617E-03   -0.81513E-06 55614   0.142E-03    0.113E-02
RMM:   8    -0.244268813888E+04   -0.23190E-04   -0.31195E-06 54138   0.105E-03    0.460E-03
RMM:   9    -0.244268815638E+04   -0.17503E-04   -0.93075E-07 53842   0.594E-04    0.244E-03
RMM:  10    -0.244268816881E+04   -0.12426E-04   -0.74969E-08 39972   0.353E-04    0.102E-03
RMM:  11    -0.244268817922E+04   -0.10411E-04   -0.10563E-07 38028   0.352E-04    0.542E-04
RMM:  12    -0.244268819000E+04   -0.10786E-04   -0.14715E-07 40572   0.345E-04    0.324E-04
RMM:  13    -0.244268819943E+04   -0.94280E-05   -0.68488E-08 37512   0.305E-04
  93 F= -.24627086E+04 E0= -.24626644E+04  d E =-.584230E-01  mag=    -0.0000
       N       E                     dE             d eps       ncg     rms          rms(c)
DAV:   1    -0.244278298184E+04   -0.94792E-01   -0.11822E+01 73920   0.230E+00    0.913E-01
RMM:   2    -0.244276981833E+04    0.13164E-01   -0.18194E-01 74000   0.284E-01    0.485E-01
RMM:   3    -0.244277567686E+04   -0.58585E-02   -0.17500E-02 75110   0.732E-02    0.334E-01
RMM:   4    -0.244276729219E+04    0.83847E-02   -0.15067E-03 75097   0.194E-02    0.210E-01
RMM:   5    -0.244276312164E+04    0.41705E-02   -0.58991E-04 74633   0.117E-02    0.788E-02
RMM:   6    -0.244276383667E+04   -0.71502E-03   -0.13896E-04 73928   0.559E-03    0.950E-02
RMM:   7    -0.244276280982E+04    0.10268E-02   -0.38639E-05 69421   0.282E-03    0.279E-02
RMM:   8    -0.244276289109E+04   -0.81270E-04   -0.15606E-05 59859   0.215E-03    0.108E-02
RMM:   9    -0.244276298836E+04   -0.97268E-04   -0.69606E-06 57536   0.145E-03    0.485E-03
RMM:  10    -0.244276304727E+04   -0.58917E-04   -0.22560E-06 55586   0.771E-04    0.322E-03
RMM:  11    -0.244276309842E+04   -0.51149E-04   -0.13670E-06 50410   0.531E-04    0.217E-03
RMM:  12    -0.244276317217E+04   -0.73752E-04   -0.31398E-06 55793   0.681E-04    0.142E-03
RMM:  13    -0.244276321871E+04   -0.46537E-04   -0.18902E-06 49151   0.501E-04    0.963E-04
RMM:  14    -0.244276325901E+04   -0.40299E-04   -0.22548E-06 52975   0.548E-04    0.644E-04
RMM:  15    -0.244276327171E+04   -0.12705E-04   -0.44012E-07 42261   0.301E-04    0.457E-04
RMM:  16    -0.244276328390E+04   -0.12185E-04   -0.41034E-07 43006   0.323E-04    0.303E-04
RMM:  17    -0.244276329374E+04   -0.98360E-05   -0.25734E-07 41462   0.297E-04
  94 F= -.24627821E+04 E0= -.24627383E+04  d E =-.131872E+00  mag=    -0.0000
       N       E                     dE             d eps       ncg     rms          rms(c)
DAV:   1    -0.244276951625E+04   -0.62323E-02   -0.10407E+00 98560   0.684E-01    0.271E-01
RMM:   2    -0.244276836616E+04    0.11501E-02   -0.16022E-02 74022   0.843E-02    0.144E-01
RMM:   3    -0.244276898238E+04   -0.61623E-03   -0.15517E-03 75128   0.218E-02    0.103E-01
RMM:   4    -0.244276808164E+04    0.90075E-03   -0.13267E-04 74478   0.574E-03    0.593E-02
RMM:   5    -0.244276776578E+04    0.31585E-03   -0.49787E-05 72429   0.346E-03    0.233E-02
RMM:   6    -0.244276783157E+04   -0.65784E-04   -0.10963E-05 56945   0.170E-03    0.287E-02
RMM:   7    -0.244276773548E+04    0.96087E-04   -0.38211E-06 54618   0.104E-03    0.818E-03
RMM:   8    -0.244276773298E+04    0.24975E-05   -0.19400E-06 54950   0.800E-04
  95 F= -.24627860E+04 E0= -.24627423E+04  d E =-.135809E+00  mag=     0.0000
       N       E                     dE             d eps       ncg     rms          rms(c)
DAV:   1    -0.244283575262E+04   -0.68017E-01   -0.31190E+00 80960   0.118E+00    0.438E-01
RMM:   2    -0.244283347901E+04    0.22736E-02   -0.46096E-02 74082   0.143E-01    0.237E-01
RMM:   3    -0.244283773660E+04   -0.42576E-02   -0.39752E-03 75362   0.351E-02    0.214E-01
RMM:   4    -0.244283284325E+04    0.48933E-02   -0.41583E-04 74791   0.100E-02    0.929E-02
RMM:   5    -0.244283232869E+04    0.51456E-03   -0.15191E-04 74024   0.601E-03    0.477E-02
RMM:   6    -0.244283262596E+04   -0.29726E-03   -0.40392E-05 69884   0.297E-03    0.622E-02
RMM:   7    -0.244283215884E+04    0.46711E-03   -0.16733E-05 61461   0.192E-03    0.141E-02
RMM:   8    -0.244283216683E+04   -0.79886E-05   -0.49194E-06 55208   0.125E-03
  96 F= -.24628503E+04 E0= -.24628066E+04  d E =-.643233E-01  mag=     0.0000
       N       E                     dE             d eps       ncg     rms          rms(c)
DAV:   1    -0.244295693504E+04   -0.12478E+00   -0.28102E+01 73920   0.355E+00    0.133E+00
RMM:   2    -0.244293544478E+04    0.21490E-01   -0.42192E-01 74102   0.432E-01    0.711E-01
RMM:   3    -0.244297148753E+04   -0.36043E-01   -0.36480E-02 75372   0.106E-01    0.627E-01
RMM:   4    -0.244292933251E+04    0.42155E-01   -0.35836E-03 74841   0.295E-02    0.271E-01
RMM:   5    -0.244292512400E+04    0.42085E-02   -0.13066E-03 75012   0.178E-02    0.140E-01
RMM:   6    -0.244292732149E+04   -0.21975E-02   -0.34609E-04 75017   0.856E-03    0.173E-01
RMM:   7    -0.244292371833E+04    0.36032E-02   -0.13421E-04 73688   0.512E-03    0.424E-02
RMM:   8    -0.244292379761E+04   -0.79277E-04   -0.39357E-05 68854   0.312E-03    0.200E-02
RMM:   9    -0.244292389285E+04   -0.95240E-04   -0.12656E-05 59058   0.193E-03    0.883E-03
RMM:  10    -0.244292398795E+04   -0.95102E-04   -0.54414E-06 56930   0.128E-03    0.404E-03
RMM:  11    -0.244292405717E+04   -0.69219E-04   -0.23037E-06 55806   0.716E-04    0.261E-03
RMM:  12    -0.244292414992E+04   -0.92743E-04   -0.38244E-06 56833   0.751E-04    0.164E-03
RMM:  13    -0.244292420555E+04   -0.55639E-04   -0.22332E-06 50532   0.561E-04    0.117E-03
RMM:  14    -0.244292425394E+04   -0.48382E-04   -0.25314E-06 53809   0.576E-04    0.821E-04
RMM:  15    -0.244292427662E+04   -0.22678E-04   -0.92897E-07 44690   0.378E-04    0.533E-04
RMM:  16    -0.244292429136E+04   -0.14743E-04   -0.56204E-07 43665   0.355E-04    0.351E-04
RMM:  17    -0.244292430235E+04   -0.10994E-04   -0.37738E-07 42914   0.327E-04    0.217E-04
RMM:  18    -0.244292430823E+04   -0.58800E-05   -0.74728E-08 38852   0.273E-04
  97 F= -.24629419E+04 E0= -.24628980E+04  d E =-.155857E+00  mag=    -0.0000
       N       E                     dE             d eps       ncg     rms          rms(c)
DAV:   1    -0.244299639935E+04   -0.72097E-01   -0.46468E+00 98560   0.145E+00    0.564E-01
RMM:   2    -0.244299274571E+04    0.36536E-02   -0.75273E-02 74184   0.183E-01    0.299E-01
RMM:   3    -0.244299706575E+04   -0.43200E-02   -0.57753E-03 75478   0.424E-02    0.248E-01
RMM:   4    -0.244299376038E+04    0.33054E-02   -0.76510E-04 75123   0.134E-02    0.166E-01
RMM:   5    -0.244299095817E+04    0.28022E-02   -0.32855E-04 74617   0.845E-03    0.610E-02
RMM:   6    -0.244299137003E+04   -0.41187E-03   -0.74950E-05 73102   0.415E-03    0.715E-02
RMM:   7    -0.244299076094E+04    0.60909E-03   -0.22745E-05 64871   0.219E-03    0.200E-02
RMM:   8    -0.244299074774E+04    0.13196E-04   -0.86523E-06 55696   0.155E-03    0.817E-03
RMM:   9    -0.244299074752E+04    0.22241E-06   -0.26116E-06 54514   0.959E-04
  98 F= -.24630116E+04 E0= -.24629679E+04  d E =-.697543E-01  mag=    -0.0000
       N       E                     dE             d eps       ncg     rms          rms(c)
DAV:   1    -0.244302563433E+04   -0.34887E-01   -0.70093E+00 93280   0.178E+00    0.695E-01
RMM:   2    -0.244302002203E+04    0.56123E-02   -0.11380E-01 74185   0.225E-01    0.368E-01
RMM:   3    -0.244302707335E+04   -0.70513E-02   -0.87744E-03 75480   0.522E-02    0.310E-01
RMM:   4    -0.244302128079E+04    0.57926E-02   -0.11607E-03 75122   0.165E-02    0.200E-01
RMM:   5    -0.244301731213E+04    0.39687E-02   -0.49285E-04 75149   0.104E-02    0.753E-02
RMM:   6    -0.244301802703E+04   -0.71491E-03   -0.11542E-04 73888   0.511E-03    0.923E-02
RMM:   7    -0.244301699530E+04    0.10317E-02   -0.37758E-05 69148   0.276E-03    0.240E-02
RMM:   8    -0.244301697976E+04    0.15543E-04   -0.12610E-05 58413   0.183E-03    0.101E-02
RMM:   9    -0.244301698083E+04   -0.10774E-05   -0.37143E-06 54674   0.114E-03
  99 F= -.24630419E+04 E0= -.24629983E+04  d E =-.100014E+00  mag=     0.0000
       N       E                     dE             d eps       ncg     rms          rms(c)
DAV:   1    -0.244308852857E+04   -0.71549E-01   -0.61330E+00 95040   0.165E+00    0.644E-01
RMM:   2    -0.244308245211E+04    0.60765E-02   -0.10041E-01 74196   0.211E-01    0.334E-01
RMM:   3    -0.244309257131E+04   -0.10119E-01   -0.76774E-03 75537   0.483E-02    0.332E-01
RMM:   4    -0.244308229754E+04    0.10274E-01   -0.98777E-04 74942   0.151E-02    0.164E-01
RMM:   5    -0.244308041805E+04    0.18795E-02   -0.41609E-04 74918   0.968E-03    0.765E-02
RMM:   6    -0.244308140218E+04   -0.98414E-03   -0.12032E-04 73920   0.517E-03    0.103E-01
RMM:   7    -0.244308007485E+04    0.13273E-02   -0.47758E-05 70445   0.310E-03    0.214E-02
RMM:   8    -0.244308006839E+04    0.64618E-05   -0.95749E-06 56388   0.164E-03
 100 F= -.24631013E+04 E0= -.24630578E+04  d E =-.594290E-01  mag=     0.0000
