unknown system                          
           1
   -16.053712    0.000000    0.000000
    -8.021628   29.947412    0.000000
     0.000000    0.000000  -23.000000
   B 
 392
Direct configuration=     1
   0.63458163  0.00196020  0.40000000
   0.96728265  0.35989082  0.59130435
   0.60414592  0.35439490  0.59130435
   0.24100918  0.34889898  0.59130435
   0.51409286  0.34497857  0.59130435
   0.15095612  0.33948265  0.59130435
   0.78781939  0.33398673  0.59130435
   0.42468265  0.32849082  0.59130435
   0.69776633  0.32457041  0.59130435
   0.33462959  0.31907449  0.59130435
   0.33041939  0.36538673  0.59130435
   0.97149286  0.31357857  0.59130435
   0.88143980  0.30416224  0.59130435
   0.51830306  0.29866633  0.59130435
   0.15516633  0.29317041  0.59130435
   0.79202959  0.28767449  0.59130435
   0.06511327  0.28375408  0.59130435
   0.70197653  0.27825816  0.59130435
   0.33883980  0.27276224  0.59130435
   0.97570306  0.26726633  0.59130435
   0.24878673  0.26334592  0.59130435
   0.60835612  0.30808265  0.59130435
   0.05733571  0.36930714  0.59130435
   0.42047245  0.37480306  0.59130435
   0.78360918  0.38029898  0.59130435
   0.22837857  0.48783571  0.59130435
   0.86524184  0.48233980  0.59130435
   0.50210510  0.47684388  0.59130435
   0.13896837  0.47134796  0.59130435
   0.41205204  0.46742755  0.59130435
   0.04891531  0.46193163  0.59130435
   0.68577857  0.45643571  0.59130435
   0.32264184  0.45093980  0.59130435
   0.59572551  0.44701939  0.59130435
   0.23258878  0.44152347  0.59130435
   0.86945204  0.43602755  0.59130435
   0.50631531  0.43053163  0.59130435
   0.77939898  0.42661122  0.59130435
   0.41626224  0.42111531  0.59130435
   0.05312551  0.41561939  0.59130435
   0.68998878  0.41012347  0.59130435
   0.96307245  0.40620306  0.59130435
   0.59993571  0.40070714  0.59130435
   0.23679898  0.39521122  0.59130435
   0.87366224  0.38971531  0.59130435
   0.14674592  0.38579490  0.59130435
   0.88565000  0.25785000  0.59130435
   0.95529490  0.49175612  0.59130435
   0.52251327  0.25235408  0.59130435
   0.43246020  0.24293776  0.59130435
   0.80822755  0.10949694  0.59130435
   0.44509082  0.10400102  0.59130435
   0.71817449  0.10008061  0.59130435
   0.35503776  0.09458469  0.59130435
   0.99190102  0.08908878  0.59130435
   0.62876429  0.08359286  0.59130435
   0.90184796  0.07967245  0.59130435
   0.53871122  0.07417653  0.59130435
   0.17557449  0.06868061  0.59130435
   0.17136429  0.11499286  0.59130435
   0.81243776  0.06318469  0.59130435
   0.72238469  0.05376837  0.59130435
   0.35924796  0.04827245  0.59130435
   0.99611122  0.04277653  0.59130435
   0.26919490  0.03885612  0.59130435
   0.90605816  0.03336020  0.59130435
   0.54292143  0.02786429  0.59130435
   0.17978469  0.02236837  0.59130435
   0.45286837  0.01844796  0.59130435
   0.08973163  0.01295204  0.59130435
   0.08552143  0.05926429  0.59130435
   0.53450102  0.12048878  0.59130435
   0.26141735  0.12440918  0.59130435
   0.62455408  0.12990510  0.59130435
   0.06932347  0.23744184  0.59130435
   0.70618673  0.23194592  0.59130435
   0.34305000  0.22645000  0.59130435
   0.61613367  0.22252959  0.59130435
   0.25299694  0.21703367  0.59130435
   0.88986020  0.21153776  0.59130435
   0.52672347  0.20604184  0.59130435
   0.79980714  0.20212143  0.59130435
   0.43667041  0.19662551  0.59130435
   0.07353367  0.19112959  0.59130435
   0.71039694  0.18563367  0.59130435
   0.98348061  0.18171327  0.59130435
   0.62034388  0.17621735  0.59130435
   0.25720714  0.17072143  0.59130435
   0.89407041  0.16522551  0.59130435
   0.16715408  0.16130510  0.59130435
   0.80401735  0.15580918  0.59130435
   0.44088061  0.15031327  0.59130435
   0.07774388  0.14481735  0.59130435
   0.35082755  0.14089694  0.59130435
   0.98769082  0.13540102  0.59130435
   0.15937653  0.24685816  0.59130435
   0.72659490  0.00745612  0.59130435
   0.31843163  0.49725204  0.59130435
   0.04470510  0.50824388  0.59130435
   0.64917245  0.85910306  0.59130435
   0.92225612  0.85518265  0.59130435
   0.55911939  0.84968673  0.59130435
   0.19598265  0.84419082  0.59130435
   0.83284592  0.83869490  0.59130435
   0.10592959  0.83477449  0.59130435
   0.74279286  0.82927857  0.59130435
   0.37965612  0.82378265  0.59130435
   0.01651939  0.81828673  0.59130435
   0.01230918  0.86459898  0.59130435
   0.28960306  0.81436633  0.59130435
   0.56332959  0.80337449  0.59130435
   0.20019286  0.79787857  0.59130435
   0.47327653  0.79395816  0.59130435
   0.11013980  0.78846224  0.59130435
   0.74700306  0.78296633  0.59130435
   0.38386633  0.77747041  0.59130435
   0.65695000  0.77355000  0.59130435
   0.29381327  0.76805408  0.59130435
   0.93067653  0.76255816  0.59130435
   0.92646633  0.80887041  0.59130435
   0.37544592  0.87009490  0.59130435
   0.73858265  0.87559082  0.59130435
   0.46549898  0.87951122  0.59130435
   0.91026837  0.98704796  0.59130435
   0.54713163  0.98155204  0.59130435
   0.82021531  0.97763163  0.59130435
   0.45707857  0.97213571  0.59130435
   0.09394184  0.96663980  0.59130435
   0.73080510  0.96114388  0.59130435
   0.00388878  0.95722347  0.59130435
   0.64075204  0.95172755  0.59130435
   0.27761531  0.94623163  0.59130435
   0.91447857  0.94073571  0.59130435
   0.18756224  0.93681531  0.59130435
   0.82442551  0.93131939  0.59130435
   0.46128878  0.92582347  0.59130435
   0.09815204  0.92032755  0.59130435
   0.37123571  0.91640714  0.59130435
   0.00809898  0.91091122  0.59130435
   0.64496224  0.90541531  0.59130435
   0.28182551  0.89991939  0.59130435
   0.55490918  0.89599898  0.59130435
   0.19177245  0.89050306  0.59130435
   0.82863571  0.88500714  0.59130435
   0.56753980  0.75706224  0.59130435
   0.68156837  0.50274796  0.59130435
   0.84062347  0.75314184  0.59130435
   0.11435000  0.74215000  0.59130435
   0.12633776  0.61028469  0.59130435
   0.76320102  0.60478878  0.59130435
   0.40006429  0.59929286  0.59130435
   0.03692755  0.59379694  0.59130435
   0.31001122  0.58987653  0.59130435
   0.94687449  0.58438061  0.59130435
   0.58373776  0.57888469  0.59130435
   0.22060102  0.57338878  0.59130435
   0.49368469  0.56946837  0.59130435
   0.85325408  0.61420510  0.59130435
   0.13054796  0.56397245  0.59130435
   0.40427449  0.55298061  0.59130435
   0.67735816  0.54906020  0.59130435
   0.31422143  0.54356429  0.59130435
   0.95108469  0.53806837  0.59130435
   0.58794796  0.53257245  0.59130435
   0.86103163  0.52865204  0.59130435
   0.49789490  0.52315612  0.59130435
   0.13475816  0.51766020  0.59130435
   0.77162143  0.51216429  0.59130435
   0.76741122  0.55847653  0.59130435
   0.21639082  0.61970102  0.59130435
   0.57952755  0.62519694  0.59130435
   0.94266429  0.63069286  0.59130435
   0.75121327  0.73665408  0.59130435
   0.02429694  0.73273367  0.59130435
   0.66116020  0.72723776  0.59130435
   0.29802347  0.72174184  0.59130435
   0.93488673  0.71624592  0.59130435
   0.20797041  0.71232551  0.59130435
   0.84483367  0.70682959  0.59130435
   0.48169694  0.70133367  0.59130435
   0.11856020  0.69583776  0.59130435
   0.39164388  0.69191735  0.59130435
   0.02850714  0.68642143  0.59130435
   0.66537041  0.68092551  0.59130435
   0.30223367  0.67542959  0.59130435
   0.57531735  0.67150918  0.59130435
   0.21218061  0.66601327  0.59130435
   0.84904388  0.66051735  0.59130435
   0.48590714  0.65502143  0.59130435
   0.75899082  0.65110102  0.59130435
   0.39585408  0.64560510  0.59130435
   0.03271735  0.64010918  0.59130435
   0.66958061  0.63461327  0.59130435
   0.47748673  0.74764592  0.59130435
   0.36345816  0.00196020  0.59130435
   0.36541837  0.99803980  0.40000000
   0.73405102  0.99254388  0.40000000
   0.04145918  0.35439490  0.40000000
   0.41009184  0.34889898  0.40000000
   0.14092857  0.34497857  0.40000000
   0.50956122  0.33948265  0.40000000
   0.87819388  0.33398673  0.40000000
   0.24682653  0.32849082  0.40000000
   0.97766327  0.32457041  0.40000000
   0.34629592  0.31907449  0.40000000
   0.71492857  0.31357857  0.40000000
   0.67282653  0.35989082  0.40000000
   0.08356122  0.30808265  0.40000000
   0.18303061  0.29866633  0.40000000
   0.55166327  0.29317041  0.40000000
   0.92029592  0.28767449  0.40000000
   0.65113265  0.28375408  0.40000000
   0.01976531  0.27825816  0.40000000
   0.38839796  0.27276224  0.40000000
   0.75703061  0.26726633  0.40000000
   0.48786735  0.26334592  0.40000000
   0.85650000  0.25785000  0.40000000
   0.81439796  0.30416224  0.40000000
   0.30419388  0.36538673  0.40000000
   0.57335714  0.36930714  0.40000000
   0.20472449  0.37480306  0.40000000
   0.65241837  0.48233980  0.40000000
   0.02105102  0.47684388  0.40000000
   0.38968367  0.47134796  0.40000000
   0.12052041  0.46742755  0.40000000
   0.48915306  0.46193163  0.40000000
   0.85778571  0.45643571  0.40000000
   0.22641837  0.45093980  0.40000000
   0.95725510  0.44701939  0.40000000
   0.32588776  0.44152347  0.40000000
   0.69452041  0.43602755  0.40000000
   0.06315306  0.43053163  0.40000000
   0.79398980  0.42661122  0.40000000
   0.16262245  0.42111531  0.40000000
   0.53125510  0.41561939  0.40000000
   0.89988776  0.41012347  0.40000000
   0.63072449  0.40620306  0.40000000
   0.99935714  0.40070714  0.40000000
   0.36798980  0.39521122  0.40000000
   0.73662245  0.38971531  0.40000000
   0.46745918  0.38579490  0.40000000
   0.83609184  0.38029898  0.40000000
   0.22513265  0.25235408  0.40000000
   0.28378571  0.48783571  0.40000000
   0.59376531  0.24685816  0.40000000
   0.69323469  0.23744184  0.40000000
   0.45090816  0.10400102  0.40000000
   0.18174490  0.10008061  0.40000000
   0.55037755  0.09458469  0.40000000
   0.91901020  0.08908878  0.40000000
   0.28764286  0.08359286  0.40000000
   0.01847959  0.07967245  0.40000000
   0.38711224  0.07417653  0.40000000
   0.75574490  0.06868061  0.40000000
   0.12437755  0.06318469  0.40000000
   0.08227551  0.10949694  0.40000000
   0.85521429  0.05926429  0.40000000
   0.59247959  0.04827245  0.40000000
   0.96111224  0.04277653  0.40000000
   0.69194898  0.03885612  0.40000000
   0.06058163  0.03336020  0.40000000
   0.42921429  0.02786429  0.40000000
   0.79784694  0.02236837  0.40000000
   0.52868367  0.01844796  0.40000000
   0.89731633  0.01295204  0.40000000
   0.26594898  0.00745612  0.40000000
   0.22384694  0.05376837  0.40000000
   0.71364286  0.11499286  0.40000000
   0.34501020  0.12048878  0.40000000
   0.61417347  0.12440918  0.40000000
   0.06186735  0.23194592  0.40000000
   0.43050000  0.22645000  0.40000000
   0.16133673  0.22252959  0.40000000
   0.52996939  0.21703367  0.40000000
   0.89860204  0.21153776  0.40000000
   0.26723469  0.20604184  0.40000000
   0.99807143  0.20212143  0.40000000
   0.36670408  0.19662551  0.40000000
   0.73533673  0.19112959  0.40000000
   0.10396939  0.18563367  0.40000000
   0.83480612  0.18171327  0.40000000
   0.20343878  0.17621735  0.40000000
   0.57207143  0.17072143  0.40000000
   0.94070408  0.16522551  0.40000000
   0.67154082  0.16130510  0.40000000
   0.04017347  0.15580918  0.40000000
   0.40880612  0.15031327  0.40000000
   0.77743878  0.14481735  0.40000000
   0.50827551  0.14089694  0.40000000
   0.87690816  0.13540102  0.40000000
   0.24554082  0.12990510  0.40000000
   0.32460204  0.24293776  0.40000000
   0.55294898  0.49175612  0.40000000
   0.18431633  0.49725204  0.40000000
   0.81568367  0.50274796  0.40000000
   0.49172449  0.85910306  0.40000000
   0.22256122  0.85518265  0.40000000
   0.59119388  0.84968673  0.40000000
   0.95982653  0.84419082  0.40000000
   0.32845918  0.83869490  0.40000000
   0.05929592  0.83477449  0.40000000
   0.42792857  0.82927857  0.40000000
   0.79656122  0.82378265  0.40000000
   0.16519388  0.81828673  0.40000000
   0.12309184  0.86459898  0.40000000
   0.89603061  0.81436633  0.40000000
   0.63329592  0.80337449  0.40000000
   0.00192857  0.79787857  0.40000000
   0.73276531  0.79395816  0.40000000
   0.10139796  0.78846224  0.40000000
   0.47003061  0.78296633  0.40000000
   0.83866327  0.77747041  0.40000000
   0.56950000  0.77355000  0.40000000
   0.93813265  0.76805408  0.40000000
   0.30676531  0.76255816  0.40000000
   0.26466327  0.80887041  0.40000000
   0.75445918  0.87009490  0.40000000
   0.38582653  0.87559082  0.40000000
   0.65498980  0.87951122  0.40000000
   0.10268367  0.98704796  0.40000000
   0.47131633  0.98155204  0.40000000
   0.20215306  0.97763163  0.40000000
   0.57078571  0.97213571  0.40000000
   0.93941837  0.96663980  0.40000000
   0.30805102  0.96114388  0.40000000
   0.03888776  0.95722347  0.40000000
   0.40752041  0.95172755  0.40000000
   0.77615306  0.94623163  0.40000000
   0.14478571  0.94073571  0.40000000
   0.87562245  0.93681531  0.40000000
   0.24425510  0.93131939  0.40000000
   0.61288776  0.92582347  0.40000000
   0.98152041  0.92032755  0.40000000
   0.71235714  0.91640714  0.40000000
   0.08098980  0.91091122  0.40000000
   0.44962245  0.90541531  0.40000000
   0.81825510  0.89991939  0.40000000
   0.54909184  0.89599898  0.40000000
   0.91772449  0.89050306  0.40000000
   0.28635714  0.88500714  0.40000000
   0.67539796  0.75706224  0.40000000
   0.40623469  0.75314184  0.40000000
   0.77486735  0.74764592  0.40000000
   0.14350000  0.74215000  0.40000000
   0.26337755  0.61028469  0.40000000
   0.63201020  0.60478878  0.40000000
   0.00064286  0.59929286  0.40000000
   0.36927551  0.59379694  0.40000000
   0.10011224  0.58987653  0.40000000
   0.46874490  0.58438061  0.40000000
   0.83737755  0.57888469  0.40000000
   0.20601020  0.57338878  0.40000000
   0.93684694  0.56946837  0.40000000
   0.30547959  0.56397245  0.40000000
   0.67411224  0.55847653  0.40000000
   0.04274490  0.55298061  0.40000000
   0.77358163  0.54906020  0.40000000
   0.14221429  0.54356429  0.40000000
   0.51084694  0.53806837  0.40000000
   0.87947959  0.53257245  0.40000000
   0.61031633  0.52865204  0.40000000
   0.97894898  0.52315612  0.40000000
   0.34758163  0.51766020  0.40000000
   0.71621429  0.51216429  0.40000000
   0.44705102  0.50824388  0.40000000
   0.53254082  0.61420510  0.40000000
   0.27340510  0.99254388  0.59130435
   0.16390816  0.61970102  0.40000000
   0.42664286  0.63069286  0.40000000
   0.51213265  0.73665408  0.40000000
   0.24296939  0.73273367  0.40000000
   0.61160204  0.72723776  0.40000000
   0.98023469  0.72174184  0.40000000
   0.34886735  0.71624592  0.40000000
   0.07970408  0.71232551  0.40000000
   0.44833673  0.70682959  0.40000000
   0.81696939  0.70133367  0.40000000
   0.18560204  0.69583776  0.40000000
   0.91643878  0.69191735  0.40000000
   0.28507143  0.68642143  0.40000000
   0.65370408  0.68092551  0.40000000
   0.02233673  0.67542959  0.40000000
   0.75317347  0.67150918  0.40000000
   0.12180612  0.66601327  0.40000000
   0.49043878  0.66051735  0.40000000
   0.85907143  0.65502143  0.40000000
   0.58990816  0.65110102  0.40000000
   0.95854082  0.64560510  0.40000000
   0.32717347  0.64010918  0.40000000
   0.69580612  0.63461327  0.40000000
   0.79527551  0.62519694  0.40000000
   0.63654184  0.99803980  0.59130435
unknown system                          
           1
   -16.558261    0.000198   -0.000000
    -8.274107   32.580079    0.000000
    -0.000000   -0.000000  -22.986795
   B 
 392
Direct configuration=     2
   0.63500433  0.00147827  0.40001003
   0.96739735  0.35843125  0.59129302
   0.60402123  0.35585747  0.59129347
   0.24107469  0.34841433  0.59129356
   0.51402969  0.34546524  0.59129450
   0.15107452  0.33802248  0.59129760
   0.78769767  0.33544502  0.59129415
   0.42474928  0.32800841  0.59129574
   0.69769911  0.32505422  0.59129344
   0.33474393  0.31761750  0.59129338
   0.33035194  0.36586954  0.59129513
   0.97137194  0.31503741  0.59129339
   0.88137708  0.30464757  0.59129521
   0.51842366  0.29721001  0.59129344
   0.15504839  0.29463058  0.59129485
   0.79209570  0.28719171  0.59129416
   0.06504764  0.28423820  0.59129488
   0.70209274  0.27679928  0.59129635
   0.33871812  0.27422064  0.59129293
   0.97576607  0.26678433  0.59129497
   0.24872656  0.26382907  0.59129370
   0.60842391  0.30759741  0.59129400
   0.05739587  0.36882425  0.59129451
   0.42035007  0.37626173  0.59129471
   0.78372646  0.37884208  0.59129409
   0.22831568  0.48831822  0.59129488
   0.86536360  0.48088067  0.59129245
   0.50198178  0.47830349  0.59129357
   0.13902599  0.47086461  0.59129440
   0.41199176  0.46791030  0.59129489
   0.04903687  0.46047195  0.59129400
   0.68565843  0.45789639  0.59129166
   0.32270501  0.45045782  0.59129333
   0.59566411  0.44750221  0.59129502
   0.23270883  0.44006678  0.59129465
   0.86933160  0.43749125  0.59129461
   0.50637937  0.43004856  0.59129489
   0.77933539  0.42709117  0.59129463
   0.41638095  0.41965540  0.59129516
   0.05300384  0.41708118  0.59129561
   0.69005406  0.40963963  0.59129507
   0.96300666  0.40668795  0.59129277
   0.60005427  0.39924708  0.59129332
   0.23667989  0.39667013  0.59129254
   0.87372800  0.38923308  0.59129365
   0.14668219  0.38627919  0.59129481
   0.88576733  0.25639177  0.59129390
   0.95535488  0.49127612  0.59129421
   0.52239142  0.25381348  0.59129561
   0.43239302  0.24342187  0.59129540
   0.80810879  0.11095715  0.59129330
   0.44515616  0.10351889  0.59129515
   0.71811454  0.10056417  0.59129543
   0.35515925  0.09312519  0.59129570
   0.99178305  0.09054311  0.59129388
   0.62882567  0.08311076  0.59129637
   0.90178669  0.08015424  0.59129461
   0.53882782  0.07271726  0.59129150
   0.17545311  0.07014149  0.59129298
   0.17148635  0.11353066  0.59129428
   0.81249986  0.06270010  0.59129299
   0.72250629  0.05230756  0.59129486
   0.35912703  0.04973426  0.59129345
   0.99617364  0.04229523  0.59129521
   0.26913211  0.03933553  0.59129483
   0.90617709  0.03189927  0.59129610
   0.54279950  0.02932264  0.59129587
   0.17984118  0.02188684  0.59129478
   0.45280983  0.01892923  0.59129401
   0.08985537  0.01149142  0.59129228
   0.08546112  0.05974694  0.59129504
   0.53443645  0.12097351  0.59129457
   0.26148323  0.12392461  0.59129384
   0.62443677  0.13136424  0.59129557
   0.06944049  0.23598143  0.59129433
   0.70606582  0.23340646  0.59129346
   0.34311458  0.22596276  0.59129383
   0.61606827  0.22301459  0.59129439
   0.25311682  0.21557311  0.59129568
   0.88974123  0.21299552  0.59129258
   0.52678667  0.20555819  0.59129367
   0.79975001  0.20260387  0.59129589
   0.43679108  0.19516714  0.59129414
   0.07341846  0.19258968  0.59129544
   0.71046339  0.18515069  0.59129407
   0.98341561  0.18219735  0.59129452
   0.62046418  0.17475478  0.59129353
   0.25708929  0.17217897  0.59129233
   0.89413511  0.16474217  0.59129482
   0.16709080  0.16179046  0.59129448
   0.80413772  0.15434968  0.59129451
   0.44076316  0.15177148  0.59129398
   0.07780809  0.14433499  0.59129358
   0.35076188  0.14137861  0.59129527
   0.98780443  0.13394227  0.59129393
   0.15944146  0.24637323  0.59129559
   0.72647574  0.00891906  0.59129450
   0.31831161  0.49871057  0.59129549
   0.04464512  0.50872388  0.59129421
   0.64923812  0.85862139  0.59129527
   0.92219191  0.85566501  0.59129358
   0.55923684  0.84822852  0.59129398
   0.19586228  0.84565032  0.59129451
   0.83290920  0.83820954  0.59129448
   0.10586489  0.83525783  0.59129482
   0.74291071  0.82782103  0.59129233
   0.37953582  0.82524522  0.59129353
   0.01658439  0.81780265  0.59129452
   0.01219557  0.86605773  0.59129393
   0.28953661  0.81484931  0.59129407
   0.56320892  0.80483286  0.59129414
   0.20024999  0.79739613  0.59129589
   0.47321333  0.79444181  0.59129367
   0.11025877  0.78700448  0.59129258
   0.74688319  0.78442689  0.59129568
   0.38393173  0.77698541  0.59129439
   0.65688542  0.77403724  0.59129383
   0.29393418  0.76659354  0.59129346
   0.93055951  0.76401857  0.59129433
   0.92658154  0.80741032  0.59129544
   0.37556323  0.86863576  0.59129557
   0.73851677  0.87607539  0.59129384
   0.46556354  0.87902649  0.59129457
   0.91014463  0.98850858  0.59129228
   0.54719017  0.98107077  0.59129401
   0.82015882  0.97811316  0.59129478
   0.45720050  0.97067736  0.59129587
   0.09382291  0.96810073  0.59129610
   0.73086789  0.96066447  0.59129483
   0.00382636  0.95770477  0.59129521
   0.64087297  0.95026574  0.59129345
   0.27749371  0.94769245  0.59129486
   0.91453888  0.94025306  0.59129504
   0.18750014  0.93729990  0.59129299
   0.82454689  0.92985851  0.59129298
   0.46117218  0.92728274  0.59129150
   0.09821331  0.91984576  0.59129461
   0.37117433  0.91688924  0.59129637
   0.00821695  0.90945689  0.59129388
   0.64484074  0.90687481  0.59129570
   0.28188545  0.89943583  0.59129543
   0.55484384  0.89648111  0.59129516
   0.19189121  0.88904285  0.59129330
   0.82851364  0.88646934  0.59129428
   0.56760699  0.75657813  0.59129540
   0.68168838  0.50128943  0.59129549
   0.84055854  0.75362677  0.59129559
   0.11423268  0.74360823  0.59129390
   0.12627200  0.61076692  0.59129365
   0.76332011  0.60332987  0.59129254
   0.39994573  0.60075292  0.59129332
   0.03699334  0.59331204  0.59129277
   0.30994594  0.59036037  0.59129507
   0.94699616  0.58291882  0.59129561
   0.58361905  0.58034460  0.59129516
   0.22066461  0.57290883  0.59129463
   0.49362063  0.56995144  0.59129489
   0.85331781  0.61372081  0.59129481
   0.13066840  0.56250875  0.59129461
   0.40433589  0.55249779  0.59129502
   0.67729499  0.54954218  0.59129333
   0.31434157  0.54210361  0.59129165
   0.95096313  0.53952806  0.59129400
   0.58800824  0.53208969  0.59129489
   0.86097401  0.52913539  0.59129440
   0.49801822  0.52169651  0.59129357
   0.13463640  0.51911933  0.59129245
   0.77168432  0.51168177  0.59129488
   0.76729117  0.55993322  0.59129465
   0.21627354  0.62115792  0.59129409
   0.57964993  0.62373827  0.59129471
   0.94260413  0.63117575  0.59129450
   0.75127345  0.73617093  0.59129370
   0.02423393  0.73321567  0.59129497
   0.66128188  0.72577936  0.59129293
   0.29790726  0.72320072  0.59129635
   0.93495237  0.71576180  0.59129488
   0.20790430  0.71280829  0.59129416
   0.84495161  0.70536941  0.59129485
   0.48157634  0.70278998  0.59129344
   0.11862293  0.69535243  0.59129521
   0.39157609  0.69240259  0.59129400
   0.02862806  0.68496258  0.59129339
   0.66525607  0.68238250  0.59129338
   0.30230090  0.67494578  0.59129344
   0.57525072  0.67199160  0.59129574
   0.21230233  0.66455498  0.59129415
   0.84892548  0.66197752  0.59129760
   0.48597031  0.65453476  0.59129450
   0.75892530  0.65158567  0.59129356
   0.39597877  0.64414253  0.59129347
   0.03260265  0.64156875  0.59129302
   0.66964807  0.63413046  0.59129513
   0.47760858  0.74618651  0.59129561
   0.36351928  0.00147748  0.59129631
   0.36499567  0.99852173  0.40001003
   0.73538567  0.99108413  0.40001005
   0.04011938  0.35585835  0.40001007
   0.41051494  0.34841638  0.40000987
   0.14050668  0.34546005  0.40001005
   0.51089582  0.33802007  0.40000906
   0.87685859  0.33544689  0.40001072
   0.24724947  0.32800994  0.40000897
   0.97724345  0.32505203  0.40000998
   0.34763004  0.31761455  0.40001077
   0.71359493  0.31503811  0.40000968
   0.67416476  0.35842985  0.40001077
   0.08399019  0.30760015  0.40000961
   0.18436162  0.29720742  0.40001113
   0.55033016  0.29463160  0.40001078
   0.92071515  0.28719415  0.40001003
   0.65070520  0.28423573  0.40000964
   0.02110358  0.27679708  0.40000900
   0.38706202  0.27422080  0.40001047
   0.75745112  0.26679017  0.40000911
   0.48744057  0.26382668  0.40000948
   0.85783851  0.25638550  0.40001054
   0.81397512  0.30464362  0.40001007
   0.30376961  0.36586842  0.40000963
   0.57378120  0.36882532  0.40001004
   0.20339349  0.37626154  0.40000973
   0.65375403  0.48087957  0.40001121
   0.01972100  0.47830425  0.40000994
   0.39010243  0.47086628  0.40001000
   0.12009271  0.46791203  0.40001009
   0.49048777  0.46046971  0.40001005
   0.85644631  0.45789692  0.40001159
   0.22684148  0.45046111  0.40001005
   0.95683653  0.44750001  0.40000892
   0.32721888  0.44006419  0.40000999
   0.69318144  0.43749210  0.40000941
   0.06357492  0.43004973  0.40000992
   0.79356971  0.42708776  0.40000935
   0.16395861  0.41965490  0.40001072
   0.52991968  0.41708160  0.40000975
   0.90030823  0.40964053  0.40000991
   0.63030206  0.40668563  0.40001018
   0.00069198  0.39924586  0.40000964
   0.36665793  0.39666571  0.40001132
   0.73704787  0.38923604  0.40000964
   0.46703455  0.38627902  0.40000955
   0.83742518  0.37883873  0.40001063
   0.22380176  0.25381525  0.40000920
   0.28336367  0.48831515  0.40000970
   0.59418880  0.24637639  0.40000949
   0.69457226  0.23598105  0.40001107
   0.45132762  0.10351941  0.40000942
   0.18132067  0.10056162  0.40001008
   0.55170864  0.09312530  0.40000958
   0.91767977  0.09054239  0.40001035
   0.28806884  0.08311337  0.40000917
   0.01805413  0.08015710  0.40000994
   0.38845033  0.07271634  0.40001154
   0.75440954  0.07014215  0.40000991
   0.12480271  0.06270217  0.40001015
   0.08094403  0.11095805  0.40001067
   0.85478683  0.05974623  0.40000996
   0.59114262  0.04973733  0.40001093
   0.96153493  0.04229384  0.40000946
   0.69152921  0.03933425  0.40000957
   0.06191508  0.03189980  0.40000934
   0.42787839  0.02932416  0.40000965
   0.79827179  0.02188812  0.40000892
   0.52826159  0.01892932  0.40000994
   0.89864722  0.01149063  0.40001147
   0.26461434  0.00891586  0.40001005
   0.22518612  0.05230701  0.40000981
   0.71497413  0.11353096  0.40000983
   0.34458881  0.12096766  0.40000987
   0.61459702  0.12392567  0.40001016
   0.06053379  0.23340782  0.40001119
   0.43092532  0.22596475  0.40001015
   0.16091815  0.22301151  0.40000947
   0.53130138  0.21557740  0.40000946
   0.89726783  0.21299504  0.40001067
   0.26766143  0.20556061  0.40000982
   0.99764860  0.20260078  0.40000891
   0.36803688  0.19516696  0.40001052
   0.73400324  0.19259073  0.40000894
   0.10438777  0.18515208  0.40000986
   0.83437981  0.18219429  0.40000993
   0.20477539  0.17475446  0.40001042
   0.57073627  0.17218265  0.40001096
   0.94112586  0.16474535  0.40000988
   0.67111700  0.16178858  0.40000984
   0.04151090  0.15435044  0.40000978
   0.40747022  0.15177130  0.40001078
   0.77786206  0.14433678  0.40000987
   0.50785480  0.14137626  0.40000926
   0.87824316  0.13394259  0.40001101
   0.24420027  0.13136983  0.40000932
   0.32418252  0.24341914  0.40001012
   0.55337202  0.49127571  0.40000918
   0.18298291  0.49871020  0.40000942
   0.81701709  0.50128980  0.40000942
   0.49214520  0.85862374  0.40000926
   0.22213794  0.85566322  0.40000987
   0.59252978  0.84822870  0.40001078
   0.95848910  0.84564956  0.40000978
   0.32888300  0.83821142  0.40000984
   0.05887414  0.83525465  0.40000988
   0.42926373  0.82781735  0.40001096
   0.79522461  0.82524555  0.40001042
   0.16562019  0.81780571  0.40000993
   0.12175684  0.86605741  0.40001101
   0.89561224  0.81484792  0.40000986
   0.63196312  0.80483304  0.40001052
   0.00235140  0.79739922  0.40000891
   0.73233858  0.79443939  0.40000982
   0.10273217  0.78700496  0.40001067
   0.46869861  0.78442260  0.40000946
   0.83908185  0.77698849  0.40000947
   0.56907468  0.77403525  0.40001015
   0.93946621  0.76659219  0.40001119
   0.30542773  0.76401895  0.40001106
   0.26599676  0.80740927  0.40000894
   0.75579973  0.86863017  0.40000932
   0.38540298  0.87607433  0.40001016
   0.65541119  0.87903234  0.40000987
   0.10135279  0.98850937  0.40001146
   0.47173841  0.98107068  0.40000994
   0.20172821  0.97811188  0.40000892
   0.57212161  0.97067584  0.40000965
   0.93808492  0.96810020  0.40000934
   0.30847079  0.96066575  0.40000957
   0.03846507  0.95770616  0.40000946
   0.40885738  0.95026267  0.40001093
   0.77481389  0.94769299  0.40000981
   0.14521317  0.94025377  0.40000996
   0.87519729  0.93729782  0.40001015
   0.24559046  0.92985785  0.40000990
   0.61154967  0.92728365  0.40001154
   0.98194587  0.91984290  0.40000994
   0.71193116  0.91688663  0.40000917
   0.08232023  0.90945760  0.40001035
   0.44829136  0.90687470  0.40000958
   0.81867933  0.89943838  0.40001008
   0.54867238  0.89648059  0.40000942
   0.91905597  0.88904195  0.40001067
   0.28502587  0.88646904  0.40000983
   0.67581748  0.75658086  0.40001012
   0.40581120  0.75362361  0.40000949
   0.77619824  0.74618475  0.40000920
   0.14216149  0.74361450  0.40001054
   0.26295213  0.61076397  0.40000964
   0.63334207  0.60333429  0.40001132
  -0.00069198  0.60075414  0.40000964
   0.36969794  0.59331437  0.40001018
   0.09969177  0.59035947  0.40000991
   0.47008032  0.58291840  0.40000975
   0.83604139  0.58034510  0.40001072
   0.20643028  0.57291224  0.40000935
   0.93642508  0.56995027  0.40000992
   0.30681857  0.56250789  0.40000941
   0.67278112  0.55993581  0.40000999
   0.04316347  0.55249999  0.40000892
   0.77315852  0.54953889  0.40001005
   0.14355370  0.54210308  0.40001159
   0.50951223  0.53953029  0.40001005
   0.87990729  0.53208797  0.40001009
   0.60989757  0.52913372  0.40001000
   0.98027900  0.52169575  0.40000994
   0.34624598  0.51912043  0.40001121
   0.71663633  0.51168485  0.40000970
   0.44662798  0.50872429  0.40000918
   0.53296545  0.61372098  0.40000955
   0.27352426  0.99108094  0.59129450
   0.16257482  0.62116127  0.40001063
   0.42621880  0.63117468  0.40001004
   0.51255943  0.73617332  0.40000948
   0.24254889  0.73320983  0.40000911
   0.61293798  0.72577921  0.40001047
   0.97889641  0.72320292  0.40000900
   0.34929480  0.71576427  0.40000964
   0.07928485  0.71280585  0.40001003
   0.44966984  0.70536841  0.40001078
   0.81563838  0.70279258  0.40001113
   0.18602488  0.69535638  0.40001007
   0.91600981  0.69239985  0.40000961
   0.28640508  0.68496189  0.40000968
   0.65236996  0.68238545  0.40001077
   0.02275655  0.67494797  0.40000998
   0.75275054  0.67199006  0.40000897
   0.12314141  0.66455311  0.40001072
   0.48910418  0.66197993  0.40000906
   0.85949332  0.65453995  0.40001005