  328  328  100    2
  0.2820828E+02  0.1328306E-08  0.3100313E-08  0.2300000E-08  0.1000000E-15
  1.000000000000000E-004
  CAR 
 unknown system                          
    984     14   1080
 
  0.0000000E+00  0.0000000E+00  0.0000000E+00  0.3703704E-01
    1      -16.637700    -16.637700   1.000000   1.000000
    2      -16.329603    -16.329603   1.000000   1.000000
    3      -16.322854    -16.322854   1.000000   1.000000
    4      -16.123510    -16.123510   1.000000   1.000000
    5      -16.061520    -16.061520   1.000000   1.000000
    6      -15.925213    -15.925213   1.000000   1.000000
    7      -15.907935    -15.907935   1.000000   1.000000
    8      -15.806984    -15.806984   1.000000   1.000000
    9      -15.785299    -15.785299   1.000000   1.000000
   10      -15.767674    -15.767674   1.000000   1.000000
   11      -15.725170    -15.725170   1.000000   1.000000
   12      -15.702050    -15.702050   1.000000   1.000000
   13      -15.695060    -15.695060   1.000000   1.000000
   14      -15.686658    -15.686658   1.000000   1.000000
   15      -15.679515    -15.679515   1.000000   1.000000
   16      -15.666792    -15.666792   1.000000   1.000000
   17      -15.637118    -15.637118   1.000000   1.000000
   18      -15.621759    -15.621759   1.000000   1.000000
   19      -15.582399    -15.582399   1.000000   1.000000
   20      -15.543321    -15.543321   1.000000   1.000000
   21      -15.534632    -15.534632   1.000000   1.000000
   22      -15.482411    -15.482411   1.000000   1.000000
   23      -15.477178    -15.477178   1.000000   1.000000
   24      -15.470707    -15.470707   1.000000   1.000000
   25      -15.461874    -15.461874   1.000000   1.000000
   26      -15.443660    -15.443660   1.000000   1.000000
   27      -15.411949    -15.411949   1.000000   1.000000
   28      -15.405264    -15.405264   1.000000   1.000000
   29      -15.338394    -15.338394   1.000000   1.000000
   30      -15.314681    -15.314681   1.000000   1.000000
   31      -15.256298    -15.256298   1.000000   1.000000
   32      -15.243712    -15.243712   1.000000   1.000000
   33      -15.235140    -15.235140   1.000000   1.000000
   34      -15.230871    -15.230871   1.000000   1.000000
   35      -15.230372    -15.230372   1.000000   1.000000
   36      -15.218288    -15.218288   1.000000   1.000000
   37      -15.214201    -15.214201   1.000000   1.000000
   38      -15.150311    -15.150311   1.000000   1.000000
   39      -15.132724    -15.132724   1.000000   1.000000
   40      -15.096782    -15.096782   1.000000   1.000000
   41      -15.053090    -15.053090   1.000000   1.000000
   42      -14.974255    -14.974255   1.000000   1.000000
   43      -14.949532    -14.949532   1.000000   1.000000
   44      -14.909548    -14.909548   1.000000   1.000000
   45      -14.834337    -14.834337   1.000000   1.000000
   46      -14.813058    -14.813058   1.000000   1.000000
   47      -14.771663    -14.771663   1.000000   1.000000
   48      -14.747055    -14.747055   1.000000   1.000000
   49      -14.656151    -14.656151   1.000000   1.000000
   50      -14.633146    -14.633146   1.000000   1.000000
   51      -14.511486    -14.511486   1.000000   1.000000
   52      -14.502596    -14.502596   1.000000   1.000000
   53      -14.458218    -14.458218   1.000000   1.000000
   54      -14.425795    -14.425795   1.000000   1.000000
   55      -14.392003    -14.392003   1.000000   1.000000
   56      -14.293717    -14.293717   1.000000   1.000000
   57      -14.259809    -14.259809   1.000000   1.000000
   58      -14.258925    -14.258925   1.000000   1.000000
   59      -14.238126    -14.238126   1.000000   1.000000
   60      -14.237364    -14.237364   1.000000   1.000000
   61      -14.230759    -14.230759   1.000000   1.000000
   62      -14.189017    -14.189017   1.000000   1.000000
   63      -14.183919    -14.183919   1.000000   1.000000
   64      -14.164473    -14.164473   1.000000   1.000000
   65      -14.160969    -14.160969   1.000000   1.000000
   66      -14.155815    -14.155815   1.000000   1.000000
   67      -14.140814    -14.140814   1.000000   1.000000
   68      -14.138890    -14.138890   1.000000   1.000000
   69      -13.776871    -13.776871   1.000000   1.000000
   70      -13.773558    -13.773558   1.000000   1.000000
   71      -13.769820    -13.769820   1.000000   1.000000
   72      -13.754043    -13.754043   1.000000   1.000000
   73      -13.749810    -13.749810   1.000000   1.000000
   74      -13.749447    -13.749447   1.000000   1.000000
   75      -13.559827    -13.559827   1.000000   1.000000
   76      -13.551829    -13.551829   1.000000   1.000000
   77      -13.531982    -13.531982   1.000000   1.000000
   78      -13.474401    -13.474401   1.000000   1.000000
   79      -13.438411    -13.438411   1.000000   1.000000
   80      -13.357569    -13.357569   1.000000   1.000000
   81      -13.355150    -13.355150   1.000000   1.000000
   82      -13.319310    -13.319310   1.000000   1.000000
   83      -13.155711    -13.155711   1.000000   1.000000
   84      -12.976897    -12.976897   1.000000   1.000000
   85      -12.929666    -12.929666   1.000000   1.000000
   86      -12.911071    -12.911071   1.000000   1.000000
   87      -12.872310    -12.872310   1.000000   1.000000
   88      -12.688586    -12.688586   1.000000   1.000000
   89      -12.667477    -12.667477   1.000000   1.000000
   90      -12.639603    -12.639603   1.000000   1.000000
   91      -12.608515    -12.608515   1.000000   1.000000
   92      -12.580529    -12.580529   1.000000   1.000000
   93      -12.440142    -12.440142   1.000000   1.000000
   94      -12.379900    -12.379900   1.000000   1.000000
   95      -12.298549    -12.298549   1.000000   1.000000
   96      -12.281213    -12.281213   1.000000   1.000000
   97      -12.253668    -12.253668   1.000000   1.000000
   98      -12.219278    -12.219278   1.000000   1.000000
   99      -12.183414    -12.183414   1.000000   1.000000
  100      -12.167725    -12.167725   1.000000   1.000000
  101      -12.151878    -12.151878   1.000000   1.000000
  102      -12.150849    -12.150849   1.000000   1.000000
  103      -12.087622    -12.087622   1.000000   1.000000
  104      -12.068839    -12.068839   1.000000   1.000000
  105      -12.016087    -12.016087   1.000000   1.000000
  106      -11.999289    -11.999289   1.000000   1.000000
  107      -11.992778    -11.992778   1.000000   1.000000
  108      -11.945701    -11.945701   1.000000   1.000000
  109      -11.941398    -11.941398   1.000000   1.000000
  110      -11.883647    -11.883647   1.000000   1.000000
  111      -11.882024    -11.882024   1.000000   1.000000
  112      -11.804025    -11.804025   1.000000   1.000000
  113      -11.780425    -11.780425   1.000000   1.000000
  114      -11.758441    -11.758441   1.000000   1.000000
  115      -11.746701    -11.746701   1.000000   1.000000
  116      -11.729852    -11.729852   1.000000   1.000000
  117      -11.720662    -11.720662   1.000000   1.000000
  118      -11.706707    -11.706707   1.000000   1.000000
  119      -11.670748    -11.670748   1.000000   1.000000
  120      -11.666183    -11.666183   1.000000   1.000000
  121      -11.626037    -11.626037   1.000000   1.000000
  122      -11.538658    -11.538658   1.000000   1.000000
  123      -11.501058    -11.501058   1.000000   1.000000
  124      -11.494177    -11.494177   1.000000   1.000000
  125      -11.486650    -11.486650   1.000000   1.000000
  126      -11.457890    -11.457890   1.000000   1.000000
  127      -11.455638    -11.455638   1.000000   1.000000
  128      -11.413639    -11.413639   1.000000   1.000000
  129      -11.374619    -11.374619   1.000000   1.000000
  130      -11.331968    -11.331968   1.000000   1.000000
  131      -11.264140    -11.264140   1.000000   1.000000
  132      -11.257725    -11.257725   1.000000   1.000000
  133      -11.245785    -11.245785   1.000000   1.000000
  134      -11.209640    -11.209640   1.000000   1.000000
  135      -11.208223    -11.208223   1.000000   1.000000
  136      -11.152506    -11.152506   1.000000   1.000000
  137      -11.129328    -11.129328   1.000000   1.000000
  138      -11.037242    -11.037242   1.000000   1.000000
  139      -10.875351    -10.875351   1.000000   1.000000
  140      -10.857487    -10.857487   1.000000   1.000000
  141      -10.794374    -10.794374   1.000000   1.000000
  142      -10.749415    -10.749415   1.000000   1.000000
  143      -10.742099    -10.742099   1.000000   1.000000
  144      -10.728509    -10.728509   1.000000   1.000000
  145      -10.727212    -10.727212   1.000000   1.000000
  146      -10.599485    -10.599485   1.000000   1.000000
  147      -10.565978    -10.565978   1.000000   1.000000
  148      -10.514515    -10.514515   1.000000   1.000000
  149      -10.428012    -10.428012   1.000000   1.000000
  150      -10.370334    -10.370334   1.000000   1.000000
  151      -10.346647    -10.346647   1.000000   1.000000
  152      -10.342697    -10.342697   1.000000   1.000000
  153      -10.275445    -10.275445   1.000000   1.000000
  154      -10.235755    -10.235755   1.000000   1.000000
  155      -10.174795    -10.174795   1.000000   1.000000
  156      -10.163802    -10.163802   1.000000   1.000000
  157      -10.156432    -10.156432   1.000000   1.000000
  158      -10.041828    -10.041828   1.000000   1.000000
  159      -10.015662    -10.015662   1.000000   1.000000
  160      -10.014255    -10.014255   1.000000   1.000000
  161       -9.979341     -9.979341   1.000000   1.000000
  162       -9.960707     -9.960707   1.000000   1.000000
  163       -9.946491     -9.946491   1.000000   1.000000
  164       -9.942221     -9.942221   1.000000   1.000000
  165       -9.896852     -9.896852   1.000000   1.000000
  166       -9.854779     -9.854779   1.000000   1.000000
  167       -9.847854     -9.847854   1.000000   1.000000
  168       -9.803604     -9.803604   1.000000   1.000000
  169       -9.795982     -9.795982   1.000000   1.000000
  170       -9.774687     -9.774687   1.000000   1.000000
  171       -9.745363     -9.745363   1.000000   1.000000
  172       -9.723516     -9.723516   1.000000   1.000000
  173       -9.711128     -9.711128   1.000000   1.000000
  174       -9.687660     -9.687660   1.000000   1.000000
  175       -9.609012     -9.609012   1.000000   1.000000
  176       -9.521629     -9.521629   1.000000   1.000000
  177       -9.513196     -9.513196   1.000000   1.000000
  178       -9.480205     -9.480205   1.000000   1.000000
  179       -9.409371     -9.409371   1.000000   1.000000
  180       -9.353383     -9.353383   1.000000   1.000000
  181       -9.342442     -9.342442   1.000000   1.000000
  182       -9.263571     -9.263571   1.000000   1.000000
  183       -9.226929     -9.226929   1.000000   1.000000
  184       -9.196818     -9.196818   1.000000   1.000000
  185       -9.129303     -9.129303   1.000000   1.000000
  186       -9.098181     -9.098181   1.000000   1.000000
  187       -9.071746     -9.071746   1.000000   1.000000
  188       -8.923896     -8.923896   1.000000   1.000000
  189       -8.917025     -8.917025   1.000000   1.000000
  190       -8.907056     -8.907056   1.000000   1.000000
  191       -8.857996     -8.857996   1.000000   1.000000
  192       -8.854965     -8.854965   1.000000   1.000000
  193       -8.804953     -8.804953   1.000000   1.000000
  194       -8.778726     -8.778726   1.000000   1.000000
  195       -8.757997     -8.757997   1.000000   1.000000
  196       -8.708450     -8.708450   1.000000   1.000000
  197       -8.687554     -8.687554   1.000000   1.000000
  198       -8.639502     -8.639502   1.000000   1.000000
  199       -8.627516     -8.627516   1.000000   1.000000
  200       -8.594618     -8.594618   1.000000   1.000000
  201       -8.566733     -8.566733   1.000000   1.000000
  202       -8.543982     -8.543982   1.000000   1.000000
  203       -8.543255     -8.543255   1.000000   1.000000
  204       -8.456743     -8.456743   1.000000   1.000000
  205       -8.441825     -8.441825   1.000000   1.000000
  206       -8.416292     -8.416292   1.000000   1.000000
  207       -8.412388     -8.412388   1.000000   1.000000
  208       -8.404080     -8.404080   1.000000   1.000000
  209       -8.337661     -8.337661   1.000000   1.000000
  210       -8.320725     -8.320725   1.000000   1.000000
  211       -8.304724     -8.304724   1.000000   1.000000
  212       -8.287246     -8.287246   1.000000   1.000000
  213       -8.283825     -8.283825   1.000000   1.000000
  214       -8.282699     -8.282699   1.000000   1.000000
  215       -8.267688     -8.267688   1.000000   1.000000
  216       -8.265065     -8.265065   1.000000   1.000000
  217       -8.239854     -8.239854   1.000000   1.000000
  218       -8.208482     -8.208482   1.000000   1.000000
  219       -8.200832     -8.200832   1.000000   1.000000
  220       -8.188182     -8.188182   1.000000   1.000000
  221       -8.096966     -8.096966   1.000000   1.000000
  222       -8.074655     -8.074655   1.000000   1.000000
  223       -8.057134     -8.057134   1.000000   1.000000
  224       -8.034950     -8.034950   1.000000   1.000000
  225       -8.034598     -8.034598   1.000000   1.000000
  226       -8.027268     -8.027268   1.000000   1.000000
  227       -8.015117     -8.015117   1.000000   1.000000
  228       -7.990177     -7.990177   1.000000   1.000000
  229       -7.950046     -7.950046   1.000000   1.000000
  230       -7.945655     -7.945655   1.000000   1.000000
  231       -7.935943     -7.935943   1.000000   1.000000
  232       -7.914656     -7.914656   1.000000   1.000000
  233       -7.888861     -7.888861   1.000000   1.000000
  234       -7.884756     -7.884756   1.000000   1.000000
  235       -7.833824     -7.833824   1.000000   1.000000
  236       -7.822949     -7.822949   1.000000   1.000000
  237       -7.800973     -7.800973   1.000000   1.000000
  238       -7.788697     -7.788697   1.000000   1.000000
  239       -7.769777     -7.769777   1.000000   1.000000
  240       -7.759595     -7.759595   1.000000   1.000000
  241       -7.732280     -7.732280   1.000000   1.000000
  242       -7.730834     -7.730834   1.000000   1.000000
  243       -7.706754     -7.706754   1.000000   1.000000
  244       -7.705014     -7.705014   1.000000   1.000000
  245       -7.652892     -7.652892   1.000000   1.000000
  246       -7.652199     -7.652199   1.000000   1.000000
  247       -7.611372     -7.611372   1.000000   1.000000
  248       -7.601703     -7.601703   1.000000   1.000000
  249       -7.592595     -7.592595   1.000000   1.000000
  250       -7.563641     -7.563641   1.000000   1.000000
  251       -7.549136     -7.549136   1.000000   1.000000
  252       -7.509443     -7.509443   1.000000   1.000000
  253       -7.508039     -7.508039   1.000000   1.000000
  254       -7.502368     -7.502368   1.000000   1.000000
  255       -7.464358     -7.464358   1.000000   1.000000
  256       -7.445243     -7.445243   1.000000   1.000000
  257       -7.420937     -7.420937   1.000000   1.000000
  258       -7.373625     -7.373625   1.000000   1.000000
  259       -7.367019     -7.367019   1.000000   1.000000
  260       -7.360968     -7.360968   1.000000   1.000000
  261       -7.353639     -7.353639   1.000000   1.000000
  262       -7.287421     -7.287421   1.000000   1.000000
  263       -7.256811     -7.256811   1.000000   1.000000
  264       -7.245761     -7.245761   1.000000   1.000000
  265       -7.242014     -7.242014   1.000000   1.000000
  266       -7.224659     -7.224659   1.000000   1.000000
  267       -7.219586     -7.219586   1.000000   1.000000
  268       -7.215856     -7.215856   1.000000   1.000000
  269       -7.176559     -7.176559   1.000000   1.000000
  270       -7.172154     -7.172154   1.000000   1.000000
  271       -7.163887     -7.163887   1.000000   1.000000
  272       -7.146935     -7.146935   1.000000   1.000000
  273       -7.124917     -7.124917   1.000000   1.000000
  274       -7.119793     -7.119793   1.000000   1.000000
  275       -7.111850     -7.111850   1.000000   1.000000
  276       -7.078056     -7.078056   1.000000   1.000000
  277       -7.077783     -7.077783   1.000000   1.000000
  278       -7.039058     -7.039058   1.000000   1.000000
  279       -6.995817     -6.995817   1.000000   1.000000
  280       -6.985075     -6.985075   1.000000   1.000000
  281       -6.978004     -6.978004   1.000000   1.000000
  282       -6.969175     -6.969175   1.000000   1.000000
  283       -6.949644     -6.949644   1.000000   1.000000
  284       -6.933179     -6.933179   1.000000   1.000000
  285       -6.919412     -6.919412   1.000000   1.000000
  286       -6.898897     -6.898897   1.000000   1.000000
  287       -6.891562     -6.891562   1.000000   1.000000
  288       -6.885910     -6.885910   1.000000   1.000000
  289       -6.884248     -6.884248   1.000000   1.000000
  290       -6.870713     -6.870713   1.000000   1.000000
  291       -6.859515     -6.859515   1.000000   1.000000
  292       -6.849333     -6.849333   1.000000   1.000000
  293       -6.836757     -6.836757   1.000000   1.000000
  294       -6.807775     -6.807775   1.000000   1.000000
  295       -6.802219     -6.802219   1.000000   1.000000
  296       -6.783479     -6.783479   1.000000   1.000000
  297       -6.782107     -6.782107   1.000000   1.000000
  298       -6.768279     -6.768279   1.000000   1.000000
  299       -6.751663     -6.751663   1.000000   1.000000
  300       -6.743647     -6.743647   1.000000   1.000000
  301       -6.714129     -6.714129   1.000000   1.000000
  302       -6.651186     -6.651186   1.000000   1.000000
  303       -6.592526     -6.592526   1.000000   1.000000
  304       -6.570059     -6.570059   1.000000   1.000000
  305       -6.559182     -6.559182   1.000000   1.000000
  306       -6.547745     -6.547745   1.000000   1.000000
  307       -6.513988     -6.513988   1.000000   1.000000
  308       -6.484988     -6.484988   1.000000   1.000000
  309       -6.475021     -6.475021   1.000000   1.000000
  310       -6.400919     -6.400919   1.000000   1.000000
  311       -6.382039     -6.382039   1.000000   1.000000
  312       -6.366011     -6.366011   1.000000   1.000000
  313       -6.321634     -6.321634   1.000000   1.000000
  314       -6.287198     -6.287198   1.000000   1.000000
  315       -6.272252     -6.272252   1.000000   1.000000
  316       -6.239030     -6.239030   1.000000   1.000000
  317       -6.200692     -6.200692   1.000000   1.000000
  318       -6.156918     -6.156918   1.000000   1.000000
  319       -6.152892     -6.152892   1.000000   1.000000
  320       -6.146368     -6.146368   1.000000   1.000000
  321       -6.141493     -6.141493   1.000000   1.000000
  322       -6.100392     -6.100392   1.000000   1.000000
  323       -6.096331     -6.096331   1.000000   1.000000
  324       -6.087140     -6.087140   1.000000   1.000000
  325       -6.074851     -6.074851   1.000000   1.000000
  326       -6.060201     -6.060201   1.000000   1.000000
  327       -6.048343     -6.048343   1.000000   1.000000
  328       -6.034385     -6.034385   1.000000   1.000000
  329       -6.032778     -6.032778   1.000000   1.000000
  330       -6.011297     -6.011297   1.000000   1.000000
  331       -5.953901     -5.953901   1.000000   1.000000
  332       -5.945157     -5.945157   1.000000   1.000000
  333       -5.909145     -5.909145   1.000000   1.000000
  334       -5.893749     -5.893749   1.000000   1.000000
  335       -5.856485     -5.856485   1.000000   1.000000
  336       -5.816443     -5.816443   1.000000   1.000000
  337       -5.812595     -5.812595   1.000000   1.000000
  338       -5.791694     -5.791694   1.000000   1.000000
  339       -5.768242     -5.768242   1.000000   1.000000
  340       -5.766552     -5.766552   1.000000   1.000000
  341       -5.734071     -5.734071   1.000000   1.000000
  342       -5.720982     -5.720982   1.000000   1.000000
  343       -5.700513     -5.700513   1.000000   1.000000
  344       -5.688912     -5.688912   1.000000   1.000000
  345       -5.661387     -5.661387   1.000000   1.000000
  346       -5.634856     -5.634856   1.000000   1.000000
  347       -5.633484     -5.633484   1.000000   1.000000
  348       -5.629822     -5.629822   1.000000   1.000000
  349       -5.613344     -5.613344   1.000000   1.000000
  350       -5.608655     -5.608655   1.000000   1.000000
  351       -5.567593     -5.567593   1.000000   1.000000
  352       -5.565822     -5.565822   1.000000   1.000000
  353       -5.521434     -5.521434   1.000000   1.000000
  354       -5.488917     -5.488917   1.000000   1.000000
  355       -5.450720     -5.450720   1.000000   1.000000
  356       -5.445090     -5.445090   1.000000   1.000000
  357       -5.439143     -5.439143   1.000000   1.000000
  358       -5.413852     -5.413852   1.000000   1.000000
  359       -5.408012     -5.408012   1.000000   1.000000
  360       -5.397148     -5.397148   1.000000   1.000000
  361       -5.393482     -5.393482   1.000000   1.000000
  362       -5.377363     -5.377363   1.000000   1.000000
  363       -5.375405     -5.375405   1.000000   1.000000
  364       -5.374096     -5.374096   1.000000   1.000000
  365       -5.343427     -5.343427   1.000000   1.000000
  366       -5.326087     -5.326087   1.000000   1.000000
  367       -5.315581     -5.315581   1.000000   1.000000
  368       -5.295958     -5.295958   1.000000   1.000000
  369       -5.287743     -5.287743   1.000000   1.000000
  370       -5.281876     -5.281876   1.000000   1.000000
  371       -5.259214     -5.259214   1.000000   1.000000
  372       -5.255549     -5.255549   1.000000   1.000000
  373       -5.243273     -5.243273   1.000000   1.000000
  374       -5.207485     -5.207485   1.000000   1.000000
  375       -5.161962     -5.161962   1.000000   1.000000
  376       -5.147187     -5.147187   1.000000   1.000000
  377       -5.133592     -5.133592   1.000000   1.000000
  378       -5.105224     -5.105224   1.000000   1.000000
  379       -5.072620     -5.072620   1.000000   1.000000
  380       -5.059909     -5.059909   1.000000   1.000000
  381       -5.041012     -5.041012   1.000000   1.000000
  382       -5.014321     -5.014321   1.000000   1.000000
  383       -5.002023     -5.002023   1.000000   1.000000
  384       -4.984884     -4.984884   1.000000   1.000000
  385       -4.976204     -4.976204   1.000000   1.000000
  386       -4.949831     -4.949831   1.000000   1.000000
  387       -4.934116     -4.934116   1.000000   1.000000
  388       -4.901593     -4.901593   1.000000   1.000000
  389       -4.834508     -4.834508   1.000000   1.000000
  390       -4.825363     -4.825363   1.000000   1.000000
  391       -4.790870     -4.790870   1.000000   1.000000
  392       -4.784047     -4.784047   1.000000   1.000000
  393       -4.779447     -4.779447   1.000000   1.000000
  394       -4.731198     -4.731198   1.000000   1.000000
  395       -4.708356     -4.708356   1.000000   1.000000
  396       -4.690313     -4.690313   1.000000   1.000000
  397       -4.687771     -4.687771   1.000000   1.000000
  398       -4.608284     -4.608284   1.000000   1.000000
  399       -4.597914     -4.597914   1.000000   1.000000
  400       -4.592714     -4.592714   1.000000   1.000000
  401       -4.583177     -4.583177   1.000000   1.000000
  402       -4.571450     -4.571450   1.000000   1.000000
  403       -4.561548     -4.561548   1.000000   1.000000
  404       -4.555754     -4.555754   1.000000   1.000000
  405       -4.499420     -4.499420   1.000000   1.000000
  406       -4.466240     -4.466240   1.000000   1.000000
  407       -4.450065     -4.450065   1.000000   1.000000
  408       -4.444072     -4.444072   1.000000   1.000000
  409       -4.440056     -4.440056   1.000000   1.000000
  410       -4.425189     -4.425189   1.000000   1.000000
  411       -4.371814     -4.371814   1.000000   1.000000
  412       -4.364059     -4.364059   1.000000   1.000000
  413       -4.307588     -4.307588   1.000000   1.000000
  414       -4.281713     -4.281713   1.000000   1.000000
  415       -4.278288     -4.278288   1.000000   1.000000
  416       -4.236506     -4.236506   1.000000   1.000000
  417       -4.232341     -4.232341   1.000000   1.000000
  418       -4.229977     -4.229977   1.000000   1.000000
  419       -4.194795     -4.194795   1.000000   1.000000
  420       -4.177797     -4.177797   1.000000   1.000000
  421       -4.164890     -4.164890   1.000000   1.000000
  422       -4.159565     -4.159565   1.000000   1.000000
  423       -4.149099     -4.149099   1.000000   1.000000
  424       -4.132212     -4.132212   1.000000   1.000000
  425       -4.113272     -4.113272   1.000000   1.000000
  426       -4.068846     -4.068846   1.000000   1.000000
  427       -4.003399     -4.003399   1.000000   1.000000
  428       -3.963382     -3.963382   1.000000   1.000000
  429       -3.952171     -3.952171   1.000000   1.000000
  430       -3.948167     -3.948167   1.000000   1.000000
  431       -3.922470     -3.922470   1.000000   1.000000
  432       -3.917572     -3.917572   1.000000   1.000000
  433       -3.904657     -3.904657   1.000000   1.000000
  434       -3.874476     -3.874476   1.000000   1.000000
  435       -3.873113     -3.873113   1.000000   1.000000
  436       -3.867347     -3.867347   1.000000   1.000000
  437       -3.816535     -3.816535   1.000000   1.000000
  438       -3.771324     -3.771324   1.000000   1.000000
  439       -3.731095     -3.731095   1.000000   1.000000
  440       -3.730015     -3.730015   1.000000   1.000000
  441       -3.646071     -3.646071   1.000000   1.000000
  442       -3.599011     -3.599011   1.000000   1.000000
  443       -3.569564     -3.569564   1.000000   1.000000
  444       -3.552471     -3.552471   1.000000   1.000000
  445       -3.517349     -3.517349   1.000000   1.000000
  446       -3.509040     -3.509040   1.000000   1.000000
  447       -3.504015     -3.504015   1.000000   1.000000
  448       -3.432133     -3.432133   1.000000   1.000000
  449       -3.413246     -3.413246   1.000000   1.000000
  450       -3.411457     -3.411457   1.000000   1.000000
  451       -3.398587     -3.398587   1.000000   1.000000
  452       -3.377613     -3.377613   1.000000   1.000000
  453       -3.346034     -3.346034   1.000000   1.000000
  454       -3.324353     -3.324353   1.000000   1.000000
  455       -3.306693     -3.306693   1.000000   1.000000
  456       -3.298077     -3.298077   1.000000   1.000000
  457       -3.294910     -3.294910   1.000000   1.000000
  458       -3.271283     -3.271283   1.000000   1.000000
  459       -3.267047     -3.267047   1.000000   1.000000
  460       -3.215013     -3.215013   1.000000   1.000000
  461       -3.154090     -3.154090   1.000000   1.000000
  462       -3.151234     -3.151234   1.000000   1.000000
  463       -3.068618     -3.068618   1.000000   1.000000
  464       -3.019384     -3.019384   1.000000   1.000000
  465       -3.009512     -3.009512   1.000000   1.000000
  466       -2.962367     -2.962367   1.000000   1.000000
  467       -2.943555     -2.943555   1.000000   1.000000
  468       -2.938926     -2.938926   1.000000   1.000000
  469       -2.906328     -2.906328   1.000000   1.000000
  470       -2.839677     -2.839677   1.000000   1.000000
  471       -2.789382     -2.789382   1.000000   1.000000
  472       -2.745746     -2.745746   1.000000   1.000000
  473       -2.729497     -2.729497   1.000000   1.000000
  474       -2.713745     -2.713745   1.000000   1.000000
  475       -2.646161     -2.646161   1.000000   1.000000
  476       -2.645364     -2.645364   1.000000   1.000000
  477       -2.536232     -2.536232   1.000000   1.000000
  478       -2.454484     -2.454484   1.000000   1.000000
  479       -2.436527     -2.436527   1.000000   1.000000
  480       -2.436424     -2.436424   1.000000   1.000000
  481       -2.349877     -2.349877   1.000000   1.000000
  482       -2.330187     -2.330187   1.000000   1.000000
  483       -2.316589     -2.316589   1.000000   1.000000
  484       -2.315882     -2.315882   1.000000   1.000000
  485       -2.279966     -2.279966   1.000000   1.000000
  486       -2.236879     -2.236879   1.000000   1.000000
  487       -2.211339     -2.211339   1.000000   1.000000
  488       -2.202658     -2.202658   1.000000   1.000000
  489       -2.191845     -2.191845   1.000000   1.000000
  490       -2.180629     -2.180629   0.999999   0.999999
  491       -2.156366     -2.156366   0.999982   0.999982
  492       -2.091144     -2.091144   0.989052   0.989052
  493       -2.051445     -2.051445   0.878860   0.878860
  494       -1.975235     -1.975235   0.162004   0.162004
  495       -1.964421     -1.964421   0.098161   0.098161
  496       -1.909015     -1.909015   0.002123   0.002123
  497       -1.823950     -1.823950   0.000000   0.000000
  498       -1.791149     -1.791149   0.000000   0.000000
  499       -1.785990     -1.785990   0.000000   0.000000
  500       -1.746382     -1.746382   0.000000   0.000000
  501       -1.724424     -1.724424   0.000000   0.000000
  502       -1.720954     -1.720954   0.000000   0.000000
  503       -1.698945     -1.698945   0.000000   0.000000
  504       -1.667864     -1.667864   0.000000   0.000000
  505       -1.618381     -1.618381   0.000000   0.000000
  506       -1.594038     -1.594038   0.000000   0.000000
  507       -1.552241     -1.552241   0.000000   0.000000
  508       -1.551259     -1.551259   0.000000   0.000000
  509       -1.545777     -1.545777   0.000000   0.000000
  510       -1.525874     -1.525874   0.000000   0.000000
  511       -1.471950     -1.471950   0.000000   0.000000
  512       -1.409027     -1.409027   0.000000   0.000000