unknown system                          
           1
   -13.283059    0.000000    0.000000
    -6.635211   30.284782    0.000000
     0.000000    0.000000  -23.000000
   B 
 328
Direct configuration=     1
   0.43671951  0.00695244  0.40000000
   0.59504512  0.35540610  0.55652174
   0.03910122  0.35191098  0.55652174
   0.48315732  0.34841585  0.55652174
   0.37050122  0.33451098  0.55652174
   0.81455732  0.33101585  0.55652174
   0.25861341  0.32752073  0.55652174
   0.70266951  0.32402561  0.55652174
   0.15098902  0.35890122  0.55652174
   0.59001341  0.31012073  0.55652174
   0.47812561  0.30313049  0.55652174
   0.92218171  0.29963537  0.55652174
   0.80952561  0.28573049  0.55652174
   0.25358171  0.28223537  0.55652174
   0.69763780  0.27874024  0.55652174
   0.14169390  0.27524512  0.55652174
   0.02903780  0.26134024  0.55652174
   0.03406951  0.30662561  0.55652174
   0.26364512  0.37280610  0.55652174
   0.81958902  0.37630122  0.55652174
   0.37553293  0.37979634  0.55652174
   0.05342805  0.48085244  0.55652174
   0.49748415  0.47735732  0.55652174
   0.94154024  0.47386220  0.55652174
   0.38559634  0.47036707  0.55652174
   0.27294024  0.45646220  0.55652174
   0.71699634  0.45296707  0.55652174
   0.16105244  0.44947195  0.55652174
   0.60510854  0.44597683  0.55652174
   0.49245244  0.43207195  0.55652174
   0.93650854  0.42857683  0.55652174
   0.38056463  0.42508171  0.55652174
   0.82462073  0.42158659  0.55652174
   0.71196463  0.40768171  0.55652174
   0.15602073  0.40418659  0.55652174
   0.60007683  0.40069146  0.55652174
   0.04413293  0.39719634  0.55652174
   0.93147683  0.38329146  0.55652174
   0.47309390  0.25784512  0.55652174
   0.16608415  0.49475732  0.55652174
   0.91715000  0.25435000  0.55652174
   0.24855000  0.23695000  0.55652174
   0.23422317  0.10800854  0.55652174
   0.67827927  0.10451341  0.55652174
   0.56562317  0.09060854  0.55652174
   0.00967927  0.08711341  0.55652174
   0.45373537  0.08361829  0.55652174
   0.89779146  0.08012317  0.55652174
   0.78513537  0.06621829  0.55652174
   0.79016707  0.11150366  0.55652174
   0.22919146  0.06272317  0.55652174
   0.11730366  0.05573293  0.55652174
   0.00464756  0.04182805  0.55652174
   0.44870366  0.03833293  0.55652174
   0.89275976  0.03483780  0.55652174
   0.33681585  0.03134268  0.55652174
   0.22415976  0.01743780  0.55652174
   0.66821585  0.01394268  0.55652174
   0.67324756  0.05922805  0.55652174
   0.34611098  0.11499878  0.55652174
   0.45876707  0.12890366  0.55652174
   0.01471098  0.13239878  0.55652174
   0.69260610  0.23345488  0.55652174
   0.13666220  0.22995976  0.55652174
   0.58071829  0.22646463  0.55652174
   0.46806220  0.21255976  0.55652174
   0.91211829  0.20906463  0.55652174
   0.35617439  0.20556951  0.55652174
   0.80023049  0.20207439  0.55652174
   0.68757439  0.18816951  0.55652174
   0.13163049  0.18467439  0.55652174
   0.57568659  0.18117927  0.55652174
   0.01974268  0.17768415  0.55652174
   0.90708659  0.16377927  0.55652174
   0.35114268  0.16028415  0.55652174
   0.79519878  0.15678902  0.55652174
   0.23925488  0.15329390  0.55652174
   0.12659878  0.13938902  0.55652174
   0.57065488  0.13589390  0.55652174
   0.36120610  0.25085488  0.55652174
   0.11227195  0.01044756  0.55652174
   0.72202805  0.49825244  0.55652174
   0.83391585  0.50524268  0.55652174
   0.87340122  0.86061098  0.55652174
   0.76074512  0.84670610  0.55652174
   0.20480122  0.84321098  0.55652174
   0.64885732  0.83971585  0.55652174
   0.09291341  0.83622073  0.55652174
   0.98025732  0.82231585  0.55652174
   0.42431341  0.81882073  0.55652174
   0.42934512  0.86410610  0.55652174
   0.86836951  0.81532561  0.55652174
   0.19976951  0.79792561  0.55652174
   0.64382561  0.79443049  0.55652174
   0.08788171  0.79093537  0.55652174
   0.53193780  0.78744024  0.55652174
   0.41928171  0.77353537  0.55652174
   0.86333780  0.77004024  0.55652174
   0.30739390  0.76654512  0.55652174
   0.31242561  0.81183049  0.55652174
   0.98528902  0.86760122  0.55652174
   0.54123293  0.87109634  0.55652174
   0.65388902  0.88500122  0.55652174
   0.33178415  0.98605732  0.55652174
   0.77584024  0.98256220  0.55652174
   0.66318415  0.96865732  0.55652174
   0.10724024  0.96516220  0.55652174
   0.55129634  0.96166707  0.55652174
   0.99535244  0.95817195  0.55652174
   0.88269634  0.94426707  0.55652174
   0.32675244  0.94077195  0.55652174
   0.77080854  0.93727683  0.55652174
   0.21486463  0.93378171  0.55652174
   0.10220854  0.91987683  0.55652174
   0.54626463  0.91638171  0.55652174
   0.99032073  0.91288659  0.55652174
   0.43437683  0.90939146  0.55652174
   0.32172073  0.89548659  0.55652174
   0.76577683  0.89199146  0.55652174
   0.20983293  0.88849634  0.55652174
   0.75145000  0.76305000  0.55652174
   0.27797195  0.50174756  0.55652174
   0.63879390  0.74914512  0.55652174
   0.52690610  0.74215488  0.55652174
   0.95586707  0.60280366  0.55652174
   0.39992317  0.59930854  0.55652174
   0.84397927  0.59581341  0.55652174
   0.28803537  0.59231829  0.55652174
   0.17537927  0.57841341  0.55652174
   0.61943537  0.57491829  0.55652174
   0.06349146  0.57142317  0.55652174
   0.06852317  0.61670854  0.55652174
   0.50754756  0.56792805  0.55652174
   0.83894756  0.55052805  0.55652174
   0.28300366  0.54703293  0.55652174
   0.72705976  0.54353780  0.55652174
   0.61440366  0.52963293  0.55652174
   0.05845976  0.52613780  0.55652174
   0.50251585  0.52264268  0.55652174
   0.94657195  0.51914756  0.55652174
   0.39489146  0.55402317  0.55652174
   0.62446707  0.62020366  0.55652174
   0.18041098  0.62369878  0.55652174
   0.73635488  0.62719390  0.55652174
   0.97096220  0.73865976  0.55652174
   0.85830610  0.72475488  0.55652174
   0.30236220  0.72125976  0.55652174
   0.74641829  0.71776463  0.55652174
   0.19047439  0.71426951  0.55652174
   0.07781829  0.70036463  0.55652174
   0.52187439  0.69686951  0.55652174
   0.96593049  0.69337439  0.55652174
   0.40998659  0.68987927  0.55652174
   0.29733049  0.67597439  0.55652174
   0.74138659  0.67247927  0.55652174
   0.18544268  0.66898415  0.55652174
   0.62949878  0.66548902  0.55652174
   0.51684268  0.65158415  0.55652174
   0.96089878  0.64808902  0.55652174
   0.40495488  0.64459390  0.55652174
   0.84901098  0.64109878  0.55652174
   0.08285000  0.74565000  0.55652174
   0.55632805  0.00695244  0.55652174
   0.56328049  0.99304756  0.40000000
   0.12271951  0.98955244  0.40000000
   0.60898780  0.35191098  0.40000000
   0.16842683  0.34841585  0.40000000
   0.29498780  0.33451098  0.40000000
   0.85442683  0.33101585  0.40000000
   0.41386585  0.32752073  0.40000000
   0.97330488  0.32402561  0.40000000
   0.09986585  0.31012073  0.40000000
   0.04954878  0.35540610  0.40000000
   0.65930488  0.30662561  0.40000000
   0.77818293  0.29963537  0.40000000
   0.90474390  0.28573049  0.40000000
   0.46418293  0.28223537  0.40000000
   0.02362195  0.27874024  0.40000000
   0.58306098  0.27524512  0.40000000
   0.70962195  0.26134024  0.40000000
   0.26906098  0.25784512  0.40000000
   0.21874390  0.30313049  0.40000000
   0.49010976  0.35890122  0.40000000
   0.36354878  0.37280610  0.40000000
   0.80410976  0.37630122  0.40000000
   0.02515854  0.47735732  0.40000000
   0.58459756  0.47386220  0.40000000
   0.14403659  0.47036707  0.40000000
   0.27059756  0.45646220  0.40000000
   0.83003659  0.45296707  0.40000000
   0.38947561  0.44947195  0.40000000
   0.94891463  0.44597683  0.40000000
   0.07547561  0.43207195  0.40000000
   0.63491463  0.42857683  0.40000000
   0.19435366  0.42508171  0.40000000
   0.75379268  0.42158659  0.40000000
   0.88035366  0.40768171  0.40000000
   0.43979268  0.40418659  0.40000000
   0.99923171  0.40069146  0.40000000
   0.55867073  0.39719634  0.40000000
   0.68523171  0.38329146  0.40000000
   0.24467073  0.37979634  0.40000000
   0.82850000  0.25435000  0.40000000
   0.46571951  0.48085244  0.40000000
   0.38793902  0.25085488  0.40000000
   0.07393902  0.23345488  0.40000000
   0.21720732  0.10451341  0.40000000
   0.34376829  0.09060854  0.40000000
   0.90320732  0.08711341  0.40000000
   0.46264634  0.08361829  0.40000000
   0.02208537  0.08012317  0.40000000
   0.14864634  0.06621829  0.40000000
   0.70808537  0.06272317  0.40000000
   0.65776829  0.10800854  0.40000000
   0.26752439  0.05922805  0.40000000
   0.95352439  0.04182805  0.40000000
   0.51296341  0.03833293  0.40000000
   0.07240244  0.03483780  0.40000000
   0.63184146  0.03134268  0.40000000
   0.75840244  0.01743780  0.40000000
   0.31784146  0.01394268  0.40000000
   0.87728049  0.01044756  0.40000000
   0.82696341  0.05573293  0.40000000
   0.09832927  0.11150366  0.40000000
   0.53889024  0.11499878  0.40000000
   0.41232927  0.12890366  0.40000000
   0.63337805  0.22995976  0.40000000
   0.19281707  0.22646463  0.40000000
   0.31937805  0.21255976  0.40000000
   0.87881707  0.20906463  0.40000000
   0.43825610  0.20556951  0.40000000
   0.99769512  0.20207439  0.40000000
   0.12425610  0.18816951  0.40000000
   0.68369512  0.18467439  0.40000000
   0.24313415  0.18117927  0.40000000
   0.80257317  0.17768415  0.40000000
   0.92913415  0.16377927  0.40000000
   0.48857317  0.16028415  0.40000000
   0.04801220  0.15678902  0.40000000
   0.60745122  0.15329390  0.40000000
   0.73401220  0.13938902  0.40000000
   0.29345122  0.13589390  0.40000000
   0.85289024  0.13239878  0.40000000
   0.51450000  0.23695000  0.40000000
   0.33915854  0.49475732  0.40000000
   0.77971951  0.49825244  0.40000000
   0.22028049  0.50174756  0.40000000
   0.26598780  0.86061098  0.40000000
   0.39254878  0.84670610  0.40000000
   0.95198780  0.84321098  0.40000000
   0.51142683  0.83971585  0.40000000
   0.07086585  0.83622073  0.40000000
   0.19742683  0.82231585  0.40000000
   0.75686585  0.81882073  0.40000000
   0.70654878  0.86410610  0.40000000
   0.31630488  0.81532561  0.40000000
   0.00230488  0.79792561  0.40000000
   0.56174390  0.79443049  0.40000000
   0.12118293  0.79093537  0.40000000
   0.68062195  0.78744024  0.40000000
   0.80718293  0.77353537  0.40000000
   0.36662195  0.77004024  0.40000000
   0.92606098  0.76654512  0.40000000
   0.87574390  0.81183049  0.40000000
   0.14710976  0.86760122  0.40000000
   0.58767073  0.87109634  0.40000000
   0.46110976  0.88500122  0.40000000
   0.68215854  0.98605732  0.40000000
   0.24159756  0.98256220  0.40000000
   0.36815854  0.96865732  0.40000000
   0.92759756  0.96516220  0.40000000
   0.48703659  0.96166707  0.40000000
   0.04647561  0.95817195  0.40000000
   0.17303659  0.94426707  0.40000000
   0.73247561  0.94077195  0.40000000
   0.29191463  0.93727683  0.40000000
   0.85135366  0.93378171  0.40000000
   0.97791463  0.91987683  0.40000000
   0.53735366  0.91638171  0.40000000
   0.09679268  0.91288659  0.40000000
   0.65623171  0.90939146  0.40000000
   0.78279268  0.89548659  0.40000000
   0.34223171  0.89199146  0.40000000
   0.90167073  0.88849634  0.40000000
   0.48550000  0.76305000  0.40000000
   0.61206098  0.74914512  0.40000000
   0.17150000  0.74565000  0.40000000
   0.73093902  0.74215488  0.40000000
   0.44132927  0.60280366  0.40000000
   0.00076829  0.59930854  0.40000000
   0.56020732  0.59581341  0.40000000
   0.11964634  0.59231829  0.40000000
   0.24620732  0.57841341  0.40000000
   0.80564634  0.57491829  0.40000000
   0.36508537  0.57142317  0.40000000
   0.92452439  0.56792805  0.40000000
   0.05108537  0.55402317  0.40000000
   0.61052439  0.55052805  0.40000000
   0.16996341  0.54703293  0.40000000
   0.72940244  0.54353780  0.40000000
   0.85596341  0.52963293  0.40000000
   0.41540244  0.52613780  0.40000000
   0.97484146  0.52264268  0.40000000
   0.53428049  0.51914756  0.40000000
   0.66084146  0.50524268  0.40000000
   0.31476829  0.61670854  0.40000000
   0.88772805  0.98955244  0.55652174
   0.75532927  0.62020366  0.40000000
   0.63645122  0.62719390  0.40000000
   0.29037805  0.73865976  0.40000000
   0.41693902  0.72475488  0.40000000
   0.97637805  0.72125976  0.40000000
   0.53581707  0.71776463  0.40000000
   0.09525610  0.71426951  0.40000000
   0.22181707  0.70036463  0.40000000
   0.78125610  0.69686951  0.40000000
   0.34069512  0.69337439  0.40000000
   0.90013415  0.68987927  0.40000000
   0.02669512  0.67597439  0.40000000
   0.58613415  0.67247927  0.40000000
   0.14557317  0.66898415  0.40000000
   0.70501220  0.66548902  0.40000000
   0.83157317  0.65158415  0.40000000
   0.39101220  0.64808902  0.40000000
   0.95045122  0.64459390  0.40000000
   0.50989024  0.64109878  0.40000000
   0.19589024  0.62369878  0.40000000
   0.44367195  0.99304756  0.55652174
unknown system                          
           1
   -13.716134    0.000245   -0.000000
    -6.852101   32.911514   -0.000000
    -0.000000    0.000000  -22.991622
   B 
 328
Direct configuration=     2
   0.43618696  0.00742542  0.40000731
   0.59520545  0.35682484  0.55650866
   0.03893921  0.35049209  0.55650697
   0.48320951  0.34889727  0.55651585
   0.37044375  0.33403421  0.55651468
   0.81471506  0.33242222  0.55650976
   0.25845214  0.32611128  0.55651923
   0.70272496  0.32450128  0.55651685
   0.15093781  0.35842335  0.55651636
   0.58996502  0.30963973  0.55651681
   0.47796637  0.30171508  0.55650402
   0.92223735  0.30011054  0.55651718
   0.80947235  0.28525462  0.55651282
   0.25374795  0.28364689  0.55649999
   0.69746591  0.27732835  0.55651646
   0.14173826  0.27571756  0.55651822
   0.02899720  0.26086425  0.55651195
   0.03423544  0.30804043  0.55651844
   0.26369625  0.37328114  0.55651099
   0.81943319  0.37489550  0.55650989
   0.37570152  0.38120306  0.55651610
   0.05338883  0.48037761  0.55651892
   0.49764596  0.47876767  0.55651878
   0.94137349  0.47245172  0.55650970
   0.38564562  0.47084641  0.55652111
   0.27288639  0.45598829  0.55651976
   0.71716955  0.45436802  0.55650602
   0.16089035  0.44806650  0.55652402
   0.60514307  0.44644879  0.55651170
   0.49241522  0.43160360  0.55651708
   0.93668030  0.42998549  0.55651746
   0.38039288  0.42367413  0.55650057
   0.82467014  0.42206050  0.55651308
   0.71190939  0.40720705  0.55652048
   0.15618091  0.40559924  0.55650747
   0.59991349  0.39927806  0.55652011
   0.04417873  0.39767870  0.55651593
   0.93141806  0.38282003  0.55651847
   0.47325167  0.25925361  0.55652383
   0.16612202  0.49522296  0.55651222
   0.91698158  0.25294769  0.55650854
   0.24850072  0.23646893  0.55651859
   0.23406005  0.10659632  0.55652101
   0.67832206  0.10499443  0.55651637
   0.56556920  0.09014082  0.55651790
   0.00985320  0.08851659  0.55651259
   0.45357344  0.08221544  0.55651007
   0.89783673  0.08059530  0.55650963
   0.78508833  0.06574301  0.55651744
   0.79032978  0.11291376  0.55650956
   0.22935188  0.06413971  0.55651185
   0.11735528  0.05621493  0.55651670
   0.00458686  0.04135178  0.55651832
   0.44886526  0.03973820  0.55650974
   0.89260317  0.03342777  0.55652223
   0.33686626  0.03181929  0.55651403
   0.22411103  0.01696024  0.55651789
   0.66838556  0.01535668  0.55651722
   0.67308362  0.05781152  0.55650740
   0.34605867  0.11452411  0.55652252
   0.45881354  0.12937710  0.55651488
   0.01453457  0.13099549  0.55650173
   0.69277194  0.23486856  0.55650837
   0.13650002  0.22854650  0.55651559
   0.58076016  0.22693813  0.55651840
   0.46802262  0.21209137  0.55650997
   0.91228757  0.21046454  0.55651008
   0.35599743  0.20416990  0.55651065
   0.80027601  0.20254010  0.55651542
   0.68753340  0.18769160  0.55651744
   0.13179283  0.18608459  0.55652067
   0.57552211  0.17976982  0.55651032
   0.01979275  0.17816068  0.55652259
   0.90703709  0.16330631  0.55651757
   0.35131949  0.16168471  0.55650386
   0.79503145  0.15538494  0.55652223
   0.23928346  0.15376296  0.55651313
   0.12656823  0.13892196  0.55651533
   0.57082657  0.13729871  0.55651964
   0.36126579  0.25132913  0.55652021
   0.11211124  0.00903315  0.55650145
   0.72185267  0.49685397  0.55650970
   0.83387798  0.50477704  0.55651222
   0.87343177  0.86107804  0.55651533
   0.76071654  0.84623704  0.55651313
   0.20496855  0.84461506  0.55652223
   0.64868052  0.83831529  0.55650386
   0.09296291  0.83669369  0.55651757
   0.98020725  0.82183932  0.55652259
   0.42447790  0.82023018  0.55651032
   0.42917343  0.86270129  0.55651964
   0.86820717  0.81391541  0.55652067
   0.19972399  0.79745990  0.55651542
   0.64400257  0.79583009  0.55651065
   0.08771243  0.78953546  0.55651008
   0.53197738  0.78790863  0.55650997
   0.41923985  0.77306186  0.55651840
   0.86349998  0.77145350  0.55651559
   0.30722806  0.76513144  0.55650837
   0.31246660  0.81230840  0.55651744
   0.98546544  0.86900450  0.55650173
   0.54118646  0.87062290  0.55651488
   0.65394133  0.88547589  0.55652252
   0.33161444  0.98464332  0.55651722
   0.77588897  0.98303976  0.55651789
   0.66313374  0.96818071  0.55651403
   0.10739683  0.96657223  0.55652223
   0.55113474  0.96026180  0.55650974
   0.99541314  0.95864822  0.55651832
   0.88264472  0.94378508  0.55651670
   0.32691638  0.94218848  0.55650740
   0.77064812  0.93586029  0.55651185
   0.21491167  0.93425699  0.55651744
   0.10216327  0.91940470  0.55650963
   0.54642656  0.91778456  0.55651007
   0.99014680  0.91148341  0.55651259
   0.43443080  0.90985917  0.55651790
   0.32167794  0.89500557  0.55651637
   0.76593995  0.89340368  0.55652101
   0.20967022  0.88708624  0.55650956
   0.75149928  0.76353107  0.55651859
   0.27814733  0.50314603  0.55650970
   0.63873421  0.74867087  0.55652021
   0.52674833  0.74074638  0.55652384
   0.95582127  0.60232130  0.55651594
   0.40008651  0.60072194  0.55652012
   0.84381909  0.59440076  0.55650747
   0.28809061  0.59279296  0.55652048
   0.17532986  0.57793949  0.55651308
   0.61960712  0.57632587  0.55650057
   0.06331970  0.57001451  0.55651746
   0.06858194  0.61717997  0.55651847
   0.50758478  0.56839641  0.55651708
   0.83910965  0.55193350  0.55652402
   0.28283044  0.54563198  0.55650602
   0.72711361  0.54401171  0.55651976
   0.61435439  0.52915359  0.55652112
   0.05862651  0.52754828  0.55650970
   0.50235403  0.52123233  0.55651878
   0.94661117  0.51962239  0.55651892
   0.39485693  0.55355121  0.55651170
   0.62429848  0.61879694  0.55651610
   0.18056681  0.62510450  0.55650989
   0.73630375  0.62671886  0.55651100
   0.97100280  0.73913575  0.55651195
   0.85826174  0.72428244  0.55651823
   0.30253409  0.72267165  0.55651646
   0.74625204  0.71635311  0.55649999
   0.19052764  0.71474538  0.55651282
   0.07776265  0.69988946  0.55651718
   0.52203363  0.69828492  0.55650402
   0.96576456  0.69195957  0.55651844
   0.41003497  0.69036028  0.55651681
   0.29727504  0.67549872  0.55651685
   0.74154786  0.67388872  0.55651923
   0.18528494  0.66757778  0.55650976
   0.62955625  0.66596579  0.55651468
   0.51679049  0.65110273  0.55651585
   0.96106079  0.64950791  0.55650697
   0.40479455  0.64317516  0.55650866
   0.84906219  0.64157665  0.55651636
   0.08301842  0.74705231  0.55650854
   0.55638196  0.00742830  0.55651436
   0.56381304  0.99257458  0.40000731
   0.12115085  0.99096792  0.40002041
   0.61056100  0.35049083  0.40001455
   0.16789065  0.34889402  0.40000570
   0.29552503  0.33403736  0.40000716
   0.85287124  0.33242347  0.40001179
   0.41543078  0.32611012  0.40000249
   0.97276879  0.32449775  0.40000487
   0.10039954  0.30964245  0.40000494
   0.04797657  0.35682534  0.40001308
   0.65773094  0.30804235  0.40000334
   0.77764856  0.30010804  0.40000441
   0.90527404  0.28525789  0.40000891
   0.46261255  0.28364848  0.40002167
   0.02519794  0.27732727  0.40000534
   0.58254090  0.27571433  0.40000378
   0.71014202  0.26086731  0.40000969
   0.26750304  0.25925505  0.39999791
   0.22031067  0.30171373  0.40001760
   0.49064193  0.35842621  0.40000535
   0.36301853  0.37327821  0.40001048
   0.80566589  0.37489479  0.40001184
   0.02359388  0.47876868  0.40000292
   0.58616699  0.47245077  0.40001198
   0.14350448  0.47084303  0.40000082
   0.27112976  0.45599163  0.40000194
   0.82846902  0.45436919  0.40001550
   0.39103562  0.44806543  0.39999781
   0.94840593  0.44644602  0.40000984
   0.07598511  0.43160667  0.40000469
   0.63334109  0.42998645  0.40000433
   0.19592580  0.42367314  0.40002130
   0.75326664  0.42205790  0.40000869
   0.88088759  0.40720973  0.40000131
   0.43822753  0.40560129  0.40001435
   0.00080235  0.39927628  0.40000168
   0.55813923  0.39767565  0.40000580
   0.68576380  0.38282299  0.40000311
   0.24310262  0.38120356  0.40000593
   0.83006268  0.25294647  0.40001326
   0.46623614  0.48038032  0.40000309
   0.38740158  0.25132570  0.40000142
   0.07236524  0.23486956  0.40001326
   0.21668065  0.10499158  0.40000543
   0.34429329  0.09014399  0.40000375
   0.90163830  0.08851835  0.40000910
   0.46420277  0.08221422  0.40001177
   0.02156467  0.08059189  0.40001223
   0.14917379  0.06574621  0.40000424
   0.70651390  0.06414132  0.40000999
   0.65933643  0.10659527  0.40000073
   0.26909650  0.05780995  0.40001443
   0.95406389  0.04135465  0.40000351
   0.51140371  0.03973950  0.40001203
   0.07396184  0.03342674  0.39999963
   0.63131319  0.03181666  0.40000772
   0.75893150  0.01696301  0.40000393
   0.31626459  0.01535810  0.40000483
   0.87884915  0.00903208  0.40002041
   0.82642677  0.05621195  0.40000493
   0.09676473  0.11291527  0.40001209
   0.53942117  0.11452691  0.39999922
   0.41180610  0.12937384  0.40000688
   0.63494486  0.22854660  0.40000614
   0.19229902  0.22693500  0.40000322
   0.31988868  0.21209432  0.40001181
   0.87725496  0.21046608  0.40001190
   0.43982544  0.20416836  0.40001125
   0.99717991  0.20253733  0.40000631
   0.12477784  0.18769429  0.40000408
   0.68212970  0.18608523  0.40000110
   0.24469992  0.17976889  0.40001140
   0.80204225  0.17815810  0.39999910
   0.92965785  0.16331000  0.40000426
   0.48700217  0.16168548  0.40001793
   0.04957653  0.15538386  0.39999941
   0.60694823  0.15375983  0.40000844
   0.73451454  0.13892597  0.40000643
   0.29188268  0.13729991  0.40000202
   0.85446298  0.13099413  0.40001992
   0.51503564  0.23647195  0.40000314
   0.33865070  0.49522062  0.40000946
   0.78128680  0.49685209  0.40001204
   0.21871320  0.50314791  0.40001204
   0.26548546  0.86107403  0.40000643
   0.39305177  0.84624017  0.40000844
   0.95042347  0.84461614  0.39999941
   0.51299783  0.83831452  0.40001793
   0.07034216  0.83669000  0.40000426
   0.19795775  0.82184190  0.39999910
   0.75530008  0.82023111  0.40001140
   0.70811732  0.86270009  0.40000202
   0.31787030  0.81391477  0.40000110
   0.00282009  0.79746267  0.40000631
   0.56017456  0.79583164  0.40001125
   0.12274504  0.78953392  0.40001190
   0.68011132  0.78790568  0.40001181
   0.80770098  0.77306500  0.40000322
   0.36505514  0.77145341  0.40000614
   0.92763476  0.76513045  0.40001326
   0.87522216  0.81230571  0.40000408
   0.14553702  0.86900587  0.40001992
   0.58819389  0.87062616  0.40000688
   0.46057883  0.88547309  0.39999922
   0.68373541  0.98464190  0.40000483
   0.24106850  0.98303699  0.40000393
   0.36868681  0.96818334  0.40000772
   0.92603816  0.96657326  0.39999963
   0.48859629  0.96026050  0.40001203
   0.04593611  0.95864535  0.40000351
   0.17357323  0.94378805  0.40000493
   0.73090350  0.94219005  0.40001443
   0.29348610  0.93585868  0.40000999
   0.85082621  0.93425379  0.40000424
   0.97843533  0.91940811  0.40001223
   0.53579723  0.91778577  0.40001177
   0.09836170  0.91148165  0.40000910
   0.65570671  0.90985601  0.40000375
   0.78331935  0.89500842  0.40000543
   0.34066357  0.89340473  0.40000073
   0.90323527  0.88708473  0.40001209
   0.48496437  0.76352805  0.40000314
   0.61259842  0.74867429  0.40000142
   0.16993732  0.74705353  0.40001326
   0.73249696  0.74074495  0.39999791
   0.44186077  0.60232435  0.40000580
  -0.00080235  0.60072372  0.40000168
   0.56177247  0.59439871  0.40001435
   0.11911241  0.59279027  0.40000131
   0.24673336  0.57794210  0.40000869
   0.80407421  0.57632686  0.40002130
   0.36665891  0.57001355  0.40000433
   0.92401489  0.56839333  0.40000469
   0.05159407  0.55355398  0.40000984
   0.60896438  0.55193457  0.39999781
   0.17153098  0.54563081  0.40001549
   0.72887024  0.54400837  0.40000194
   0.85649552  0.52915696  0.40000082
   0.41383302  0.52754923  0.40001198
   0.97640612  0.52123132  0.40000292
   0.53376386  0.51961968  0.40000309
   0.66134930  0.50477938  0.40000946
   0.31423620  0.61717701  0.40000311
   0.88788876  0.99096685  0.55650145
   0.75689738  0.61879644  0.40000592
   0.63698147  0.62672179  0.40001048
   0.28985799  0.73913269  0.40000969
   0.41745910  0.72428567  0.40000378
   0.97480205  0.72267273  0.40000534
   0.53738745  0.71635152  0.40002167
   0.09472596  0.71474212  0.40000891
   0.22235144  0.69989196  0.40000441
   0.77968933  0.69828627  0.40001760
   0.34226906  0.69195765  0.40000333
   0.89960046  0.69035755  0.40000493
   0.02723121  0.67550225  0.40000487
   0.58456922  0.67388988  0.40000249
   0.14712876  0.66757653  0.40001179
   0.70447497  0.66596264  0.40000716
   0.83210935  0.65110598  0.40000570
   0.38943900  0.64950918  0.40001455
   0.95202343  0.64317466  0.40001308
   0.50935807  0.64157379  0.40000535
   0.19433411  0.62510521  0.40001183
   0.44361804  0.99257170  0.55651436
unknown system                          
           1
   -13.928535    0.000365   -0.000000
    -6.958475   34.199795   -0.000000
    -0.000000    0.000000  -22.987513
   B 
 328
Direct configuration=     3
   0.43593960  0.00763888  0.40001089
   0.59529834  0.35746513  0.55650224
   0.03884553  0.34985174  0.55649972
   0.48323998  0.34911454  0.55651296
   0.37041082  0.33381905  0.55651122
   0.81480658  0.33305692  0.55650388
   0.25835891  0.32547519  0.55651800
   0.70275691  0.32471595  0.55651445
   0.15090784  0.35820768  0.55651372
   0.58993636  0.30942265  0.55651439
   0.47787403  0.30107630  0.55649533
   0.92226939  0.30032499  0.55651494
   0.80944144  0.28503986  0.55650844
   0.25384357  0.28428392  0.55648932
   0.69736761  0.27669115  0.55651386
   0.14176490  0.27593077  0.55651650
   0.02897230  0.26064943  0.55650714
   0.03433094  0.30867895  0.55651682
   0.26372614  0.37349553  0.55650572
   0.81934259  0.37426109  0.55650408
   0.37579819  0.38183792  0.55651334
   0.05336459  0.48016332  0.55651754
   0.49773946  0.47940417  0.55651733
   0.94127764  0.47181516  0.55650379
   0.38567468  0.47106273  0.55652081
   0.27285522  0.45577442  0.55651879
   0.71726836  0.45500028  0.55649831
   0.16079678  0.44743221  0.55652514
   0.60516504  0.44666179  0.55650678
   0.49239201  0.43139222  0.55651479
   0.93677850  0.43062122  0.55651536
   0.38029469  0.42303888  0.55649019
   0.82469920  0.42227439  0.55650883
   0.71187755  0.40699283  0.55651986
   0.15627365  0.40623678  0.55650047
   0.59981923  0.39864018  0.55651932
   0.04420617  0.39789639  0.55651309
   0.93138458  0.38260728  0.55651687
   0.47334323  0.25988928  0.55652486
   0.16614550  0.49543310  0.55650755
   0.91688504  0.25231483  0.55650206
   0.24847164  0.23625183  0.55651705
   0.23396591  0.10595897  0.55652065
   0.67834807  0.10521152  0.55651373
   0.56553804  0.08992974  0.55651602
   0.00995237  0.08914986  0.55650810
   0.45347998  0.08158232  0.55650435
   0.89786380  0.08080837  0.55650369
   0.78506037  0.06552851  0.55651533
   0.79042369  0.11355015  0.55650358
   0.22944478  0.06477900  0.55650700
   0.11738549  0.05643246  0.55651423
   0.00455241  0.04113684  0.55651665
   0.44895859  0.04037241  0.55650386
   0.89251216  0.03279142  0.55652246
   0.33689583  0.03203439  0.55651025
   0.22408224  0.01674471  0.55651600
   0.66848285  0.01599482  0.55651500
   0.67298904  0.05717224  0.55650036
   0.34602822  0.11430989  0.55652291
   0.45884120  0.12959076  0.55651151
   0.01443422  0.13036218  0.55649191
   0.69286739  0.23550656  0.55650181
   0.13640632  0.22790868  0.55651258
   0.58078563  0.22715183  0.55651676
   0.46799829  0.21187998  0.55650419
   0.91238449  0.21109632  0.55650436
   0.35589687  0.20353825  0.55650521
   0.80030313  0.20275027  0.55651231
   0.68750829  0.18747591  0.55651532
   0.13188658  0.18672103  0.55652014
   0.57542736  0.17913372  0.55650472
   0.01982215  0.17837574  0.55652300
   0.90700800  0.16309286  0.55651553
   0.35141999  0.16231680  0.55649509
   0.79493540  0.15475127  0.55652248
   0.23930256  0.15397465  0.55650890
   0.12654820  0.13871117  0.55651219
   0.57092469  0.13793271  0.55651861
   0.36129974  0.25154316  0.55651946
   0.11201821  0.00839482  0.55649150
   0.72175287  0.49622283  0.55650380
   0.83385450  0.50456690  0.55650755
   0.87345179  0.86128883  0.55651219
   0.76069744  0.84602535  0.55650890
   0.20506460  0.84524873  0.55652248
   0.64858002  0.83768320  0.55649509
   0.09299199  0.83690714  0.55651553
   0.98017785  0.82162426  0.55652300
   0.42457265  0.82086628  0.55650472
   0.42907531  0.86206729  0.55651861
   0.86811342  0.81327897  0.55652014
   0.19969688  0.79724973  0.55651232
   0.64410314  0.79646174  0.55650521
   0.08761551  0.78890368  0.55650436
   0.53200170  0.78812002  0.55650419
   0.41921438  0.77284817  0.55651676
   0.86359369  0.77209131  0.55651258
   0.30713261  0.76449344  0.55650181
   0.31249170  0.81252409  0.55651532
   0.98556578  0.86963782  0.55649192
   0.54115880  0.87040924  0.55651151
   0.65397177  0.88569011  0.55652291
   0.33151715  0.98400518  0.55651500
   0.77591775  0.98325529  0.55651600
   0.66310417  0.96796562  0.55651025
   0.10748784  0.96720858  0.55652246
   0.55104141  0.95962759  0.55650386
   0.99544759  0.95886316  0.55651665
   0.88261451  0.94356755  0.55651423
   0.32701096  0.94282776  0.55650036
   0.77055521  0.93522100  0.55650700
   0.21493962  0.93447149  0.55651533
   0.10213620  0.91919163  0.55650369
   0.54652002  0.91841768  0.55650435
   0.99004763  0.91085015  0.55650810
   0.43446195  0.91007025  0.55651602