       N       E                     dE             d eps       ncg     rms          rms(c)
DAV:   1     0.153551167685E+04    0.15355E+04   -0.10871E+05 20160   0.551E+02
DAV:   2    -0.524191627317E+03   -0.20597E+04   -0.19938E+04 24000   0.161E+02
DAV:   3    -0.661188676291E+03   -0.13700E+03   -0.13475E+03 27120   0.411E+01
DAV:   4    -0.663000753151E+03   -0.18121E+01   -0.18085E+01 27120   0.530E+00
DAV:   5    -0.663035526743E+03   -0.34774E-01   -0.34771E-01 31440   0.688E-01    0.651E+01
RMM:   6    -0.404679851103E+03    0.25836E+03   -0.16615E+02 20177   0.146E+01    0.393E+01
RMM:   7    -0.383540872316E+03    0.21139E+02   -0.79440E+01 20204   0.997E+00    0.205E+01
RMM:   8    -0.361923746319E+03    0.21617E+02   -0.11280E+01 20315   0.439E+00    0.157E+01
RMM:   9    -0.385955667764E+03   -0.24032E+02   -0.42762E+00 20286   0.257E+00    0.130E+01
RMM:  10    -0.445868582120E+03   -0.59913E+02   -0.35666E+01 20196   0.580E+00    0.907E+00
RMM:  11    -0.497181976864E+03   -0.51313E+02   -0.48169E+01 20171   0.599E+00    0.662E+00
RMM:  12    -0.536010830981E+03   -0.38829E+02   -0.61804E+01 20194   0.531E+00    0.404E+00
RMM:  13    -0.548751032360E+03   -0.12740E+02   -0.36882E+00 20175   0.163E+00    0.232E+00
RMM:  14    -0.549355716699E+03   -0.60468E+00   -0.47962E-01 20178   0.693E-01    0.137E+00
RMM:  15    -0.550453728922E+03   -0.10980E+01   -0.17658E-01 20182   0.415E-01    0.965E-01
RMM:  16    -0.550977275101E+03   -0.52355E+00   -0.92741E-02 20160   0.299E-01    0.543E-01
RMM:  17    -0.551218681718E+03   -0.24141E+00   -0.32819E-02 20160   0.192E-01    0.313E-01
RMM:  18    -0.551319003975E+03   -0.10032E+00   -0.44798E-02 20160   0.188E-01    0.183E-01
RMM:  19    -0.551324596673E+03   -0.55927E-02   -0.15047E-02 20160   0.976E-02    0.126E-01
RMM:  20    -0.551326016776E+03   -0.14201E-02   -0.26878E-03 20160   0.449E-02    0.882E-02
RMM:  21    -0.551329776096E+03   -0.37593E-02   -0.20518E-03 20176   0.391E-02    0.437E-02
RMM:  22    -0.551331498096E+03   -0.17220E-02   -0.39832E-04 20166   0.182E-02    0.284E-02
RMM:  23    -0.551332408774E+03   -0.91068E-03   -0.79585E-05 18734   0.107E-02    0.174E-02
RMM:  24    -0.551333824367E+03   -0.14156E-02   -0.62294E-05 17258   0.756E-03    0.863E-03
RMM:  25    -0.551334429014E+03   -0.60465E-03   -0.15943E-05 16697   0.406E-03    0.482E-03
RMM:  26    -0.551334741670E+03   -0.31266E-03   -0.71082E-06 16016   0.267E-03    0.252E-03
RMM:  27    -0.551334862185E+03   -0.12052E-03   -0.27381E-06 14902   0.169E-03    0.130E-03
RMM:  28    -0.551334941003E+03   -0.78818E-04   -0.14419E-06 14050   0.131E-03    0.761E-04
RMM:  29    -0.551334980190E+03   -0.39187E-04   -0.48727E-07 13036   0.930E-04    0.479E-04
RMM:  30    -0.551335009931E+03   -0.29741E-04   -0.23646E-07 12644   0.837E-04    0.323E-04
RMM:  31    -0.551335022565E+03   -0.12634E-04   -0.11081E-07 12329   0.708E-04    0.273E-04
RMM:  32    -0.551335029073E+03   -0.65088E-05   -0.18371E-08 10687   0.505E-04
   1 F= -.55768915E+03 E0= -.55767334E+03  d E =-.557689E+03  mag=     0.0000
       N       E                     dE             d eps       ncg     rms          rms(c)
DAV:   1    -0.621306026157E+03   -0.69971E+02   -0.35962E+02 26880   0.266E+01    0.109E+01
RMM:   2    -0.619931740662E+03    0.13743E+01   -0.82107E+00 20174   0.295E+00    0.636E+00
RMM:   3    -0.618970052306E+03    0.96169E+00   -0.16389E+00 20160   0.126E+00    0.785E-01
RMM:   4    -0.618956485632E+03    0.13567E-01   -0.51951E-02 20546   0.232E-01    0.405E-01
RMM:   5    -0.618955966325E+03    0.51931E-03   -0.12569E-02 20330   0.105E-01    0.194E-01
RMM:   6    -0.618958225018E+03   -0.22587E-02   -0.24633E-03 20363   0.488E-02    0.887E-02
RMM:   7    -0.618961344810E+03   -0.31198E-02   -0.10522E-03 20160   0.300E-02    0.537E-02
RMM:   8    -0.618964539808E+03   -0.31950E-02   -0.86349E-04 20160   0.234E-02    0.331E-02
RMM:   9    -0.618967850492E+03   -0.33107E-02   -0.14637E-03 20160   0.266E-02    0.245E-02
RMM:  10    -0.618969040961E+03   -0.11905E-02   -0.28897E-04 20159   0.117E-02    0.152E-02
RMM:  11    -0.618969964068E+03   -0.92311E-03   -0.17423E-04 17798   0.844E-03    0.799E-03
RMM:  12    -0.618970147035E+03   -0.18297E-03   -0.11088E-05 16263   0.290E-03    0.497E-03
RMM:  13    -0.618970479875E+03   -0.33284E-03   -0.13166E-05 16629   0.287E-03    0.329E-03
RMM:  14    -0.618970571895E+03   -0.92020E-04   -0.20877E-06 14825   0.133E-03    0.146E-03
RMM:  15    -0.618970624079E+03   -0.52184E-04   -0.79504E-07 13995   0.110E-03    0.851E-04
RMM:  16    -0.618970652214E+03   -0.28135E-04   -0.41465E-07 12510   0.862E-04    0.460E-04
RMM:  17    -0.618970656051E+03   -0.38372E-05   -0.16330E-08 10276   0.525E-04
   2 F= -.62457924E+03 E0= -.62456938E+03  d E =-.668901E+02  mag=    -0.0000
       N       E                     dE             d eps       ncg     rms          rms(c)
DAV:   1    -0.629815643513E+03   -0.10845E+02   -0.79181E+01 26880   0.123E+01    0.490E+00
RMM:   2    -0.629469427564E+03    0.34622E+00   -0.12289E+00 20168   0.135E+00    0.280E+00
RMM:   3    -0.629251778978E+03    0.21765E+00   -0.31633E-01 20166   0.550E-01    0.355E-01
RMM:   4    -0.629249915049E+03    0.18639E-02   -0.11796E-02 20519   0.107E-01    0.177E-01
RMM:   5    -0.629250688273E+03   -0.77322E-03   -0.18751E-03 20216   0.404E-02    0.953E-02
RMM:   6    -0.629252266465E+03   -0.15782E-02   -0.87483E-04 20417   0.283E-02    0.400E-02
RMM:   7    -0.629253627995E+03   -0.13615E-02   -0.25997E-04 20160   0.134E-02    0.256E-02
RMM:   8    -0.629255754582E+03   -0.21266E-02   -0.50855E-04 20160   0.156E-02    0.141E-02
RMM:   9    -0.629256769242E+03   -0.10147E-02   -0.21066E-04 19906   0.944E-03    0.117E-02
RMM:  10    -0.629257759022E+03   -0.98978E-03   -0.21479E-04 18813   0.862E-03    0.654E-03
RMM:  11    -0.629257932857E+03   -0.17384E-03   -0.13402E-05 16440   0.266E-03    0.298E-03
RMM:  12    -0.629258112553E+03   -0.17970E-03   -0.59300E-06 16034   0.190E-03    0.252E-03
RMM:  13    -0.629258214082E+03   -0.10153E-03   -0.23612E-06 13325   0.126E-03    0.889E-04
RMM:  14    -0.629258244458E+03   -0.30376E-04   -0.52826E-07 13218   0.915E-04    0.638E-04
RMM:  15    -0.629258261945E+03   -0.17487E-04   -0.20421E-07 11819   0.685E-04    0.245E-04
RMM:  16    -0.629258264682E+03   -0.27373E-05   -0.28236E-08 10279   0.530E-04
   3 F= -.63457220E+03 E0= -.63456138E+03  d E =-.768830E+02  mag=    -0.0000
       N       E                     dE             d eps       ncg     rms          rms(c)
DAV:   1    -0.630495736214E+03   -0.12375E+01   -0.16532E+01 26640   0.556E+00    0.217E+00
RMM:   2    -0.630427830367E+03    0.67906E-01   -0.25544E-01 20160   0.635E-01    0.123E+00
RMM:   3    -0.630383296139E+03    0.44534E-01   -0.61012E-02 20166   0.243E-01    0.170E-01
RMM:   4    -0.630382692821E+03    0.60332E-03   -0.27388E-03 20540   0.512E-02    0.807E-02
RMM:   5    -0.630382965914E+03   -0.27309E-03   -0.35300E-04 20221   0.178E-02    0.430E-02
RMM:   6    -0.630383525652E+03   -0.55974E-03   -0.18121E-04 20292   0.128E-02    0.182E-02
RMM:   7    -0.630383908082E+03   -0.38243E-03   -0.36418E-05 17058   0.497E-03    0.126E-02
RMM:   8    -0.630384425431E+03   -0.51735E-03   -0.59921E-05 16988   0.544E-03    0.713E-03
RMM:   9    -0.630385066840E+03   -0.64141E-03   -0.10037E-04 17147   0.610E-03    0.524E-03
RMM:  10    -0.630385439418E+03   -0.37258E-03   -0.48468E-05 16888   0.393E-03    0.233E-03
RMM:  11    -0.630385567020E+03   -0.12760E-03   -0.79463E-06 15065   0.171E-03    0.140E-03
RMM:  12    -0.630385657433E+03   -0.90413E-04   -0.22815E-06 14012   0.125E-03    0.892E-04
RMM:  13    -0.630385696898E+03   -0.39465E-04   -0.83460E-07 12176   0.881E-04    0.411E-04
RMM:  14    -0.630385706685E+03   -0.97866E-05   -0.12370E-07 11457   0.641E-04
   4 F= -.63557981E+03 E0= -.63556877E+03  d E =-.778907E+02  mag=    -0.0000
       N       E                     dE             d eps       ncg     rms          rms(c)
DAV:   1    -0.642966681009E+03   -0.12581E+02   -0.19081E+02 20760   0.164E+01    0.656E+00
RMM:   2    -0.641041215836E+03    0.19255E+01   -0.61030E+00 20364   0.290E+00    0.256E+00
RMM:   3    -0.640885766986E+03    0.15545E+00   -0.76186E-01 20217   0.752E-01    0.104E+00
RMM:   4    -0.640888142221E+03   -0.23752E-02   -0.37645E-02 20620   0.196E-01    0.661E-01
RMM:   5    -0.640865500950E+03    0.22641E-01   -0.10826E-02 20381   0.963E-02    0.123E-01
RMM:   6    -0.640865229104E+03    0.27185E-03   -0.69969E-04 20455   0.243E-02    0.469E-02
RMM:   7    -0.640865334604E+03   -0.10550E-03   -0.10563E-04 20202   0.984E-03    0.247E-02
RMM:   8    -0.640865564970E+03   -0.23037E-03   -0.50093E-05 19887   0.695E-03    0.896E-03
RMM:   9    -0.640865709015E+03   -0.14405E-03   -0.97123E-06 16198   0.267E-03    0.517E-03
RMM:  10    -0.640866004883E+03   -0.29587E-03   -0.31146E-05 16792   0.359E-03    0.361E-03
RMM:  11    -0.640866111762E+03   -0.10688E-03   -0.61384E-06 15682   0.155E-03    0.248E-03
RMM:  12    -0.640866259691E+03   -0.14793E-03   -0.10520E-05 16377   0.189E-03    0.108E-03
RMM:  13    -0.640866300098E+03   -0.40407E-04   -0.13066E-06 12091   0.782E-04    0.722E-04
RMM:  14    -0.640866326032E+03   -0.25934E-04   -0.51377E-07 11680   0.693E-04    0.447E-04
RMM:  15    -0.640866345492E+03   -0.19459E-04   -0.37377E-07 12072   0.748E-04    0.301E-04
RMM:  16    -0.640866349747E+03   -0.42553E-05   -0.31081E-08 10354   0.575E-04
   5 F= -.64593441E+03 E0= -.64591967E+03  d E =-.103546E+02  mag=    -0.0000
       N       E                     dE             d eps       ncg     rms          rms(c)
DAV:   1    -0.642472123880E+03   -0.16058E+01   -0.43487E+01 25920   0.777E+00    0.292E+00
RMM:   2    -0.642079730313E+03    0.39239E+00   -0.13110E+00 20324   0.134E+00    0.115E+00
RMM:   3    -0.642042641063E+03    0.37089E-01   -0.17484E-01 20207   0.359E-01    0.441E-01
RMM:   4    -0.642039722938E+03    0.29181E-02   -0.69888E-03 20610   0.922E-02    0.119E-01
RMM:   5    -0.642039464262E+03    0.25868E-03   -0.82202E-04 20325   0.281E-02    0.314E-02
RMM:   6    -0.642039446720E+03    0.17541E-04   -0.52179E-05 19568   0.674E-03    0.180E-02
RMM:   7    -0.642039493536E+03   -0.46815E-04   -0.43552E-05 19975   0.659E-03    0.834E-03
RMM:   8    -0.642039517842E+03   -0.24306E-04   -0.42093E-06 14838   0.200E-03    0.361E-03
RMM:   9    -0.642039571775E+03   -0.53933E-04   -0.38576E-06 15091   0.179E-03    0.211E-03
RMM:  10    -0.642039651336E+03   -0.79561E-04   -0.44922E-06 15782   0.142E-03    0.180E-03
RMM:  11    -0.642039690041E+03   -0.38705E-04   -0.12853E-06 11986   0.785E-04    0.101E-03
RMM:  12    -0.642039728698E+03   -0.38657E-04   -0.21082E-06 14156   0.102E-03    0.409E-04
RMM:  13    -0.642039738124E+03   -0.94256E-05   -0.16371E-07 10873   0.517E-04
   6 F= -.64705360E+03 E0= -.64704387E+03  d E =-.114738E+02  mag=    -0.0000
       N       E                     dE             d eps       ncg     rms          rms(c)
DAV:   1    -0.645158434323E+03   -0.31187E+01   -0.37193E+01 25560   0.783E+00    0.210E+00
RMM:   2    -0.645050494822E+03    0.10794E+00   -0.55859E-01 20167   0.877E-01    0.962E-01
RMM:   3    -0.645037234580E+03    0.13260E-01   -0.75742E-02 20674   0.257E-01    0.323E-01
RMM:   4    -0.645036083922E+03    0.11507E-02   -0.35330E-03 20339   0.594E-02    0.991E-02
RMM:   5    -0.645036009958E+03    0.73963E-04   -0.46536E-04 20585   0.205E-02    0.353E-02
RMM:   6    -0.645035995122E+03    0.14837E-04   -0.30429E-05 18162   0.569E-03    0.197E-02
RMM:   7    -0.645036002762E+03   -0.76406E-05   -0.23578E-05 17565   0.492E-03
   7 F= -.65007384E+03 E0= -.65005518E+03  d E =-.302023E+01  mag=     0.0000
       N       E                     dE             d eps       ncg     rms          rms(c)
DAV:   1    -0.649708859713E+03   -0.46729E+01   -0.34543E+02 24240   0.239E+01    0.640E+00
RMM:   2    -0.648580383902E+03    0.11285E+01   -0.54519E+00 20168   0.272E+00    0.281E+00
RMM:   3    -0.648450188327E+03    0.13020E+00   -0.67930E-01 20615   0.765E-01    0.990E-01
RMM:   4    -0.648438605273E+03    0.11583E-01   -0.39609E-02 20285   0.196E-01    0.276E-01
RMM:   5    -0.648436990726E+03    0.16145E-02   -0.38108E-03 20555   0.573E-02    0.122E-01
RMM:   6    -0.648436544341E+03    0.44638E-03   -0.35018E-04 20566   0.180E-02    0.665E-02
RMM:   7    -0.648436533450E+03    0.10891E-04   -0.33635E-04 20195   0.182E-02    0.193E-02
RMM:   8    -0.648436549574E+03   -0.16123E-04   -0.15953E-05 16169   0.400E-03    0.940E-03
RMM:   9    -0.648436601938E+03   -0.52364E-04   -0.16769E-05 16623   0.391E-03    0.507E-03
RMM:  10    -0.648436653459E+03   -0.51521E-04   -0.30058E-06 15084   0.166E-03    0.248E-03
RMM:  11    -0.648436694599E+03   -0.41141E-04   -0.13229E-06 14377   0.103E-03    0.141E-03
RMM:  12    -0.648436770430E+03   -0.75830E-04   -0.31021E-06 14848   0.121E-03    0.901E-04
RMM:  13    -0.648436790241E+03   -0.19811E-04   -0.45629E-07 12001   0.615E-04    0.621E-04
RMM:  14    -0.648436805491E+03   -0.15250E-04   -0.25379E-07 11356   0.589E-04    0.301E-04
RMM:  15    -0.648436810262E+03   -0.47705E-05   -0.81332E-08 10562   0.550E-04
   8 F= -.65354997E+03 E0= -.65353567E+03  d E =-.649637E+01  mag=     0.0000
       N       E                     dE             d eps       ncg     rms          rms(c)
DAV:   1    -0.648652924190E+03   -0.21612E+00   -0.13255E+01 25920   0.477E+00    0.124E+00
RMM:   2    -0.648605250230E+03    0.47674E-01   -0.20043E-01 20188   0.510E-01    0.551E-01
RMM:   3    -0.648600360541E+03    0.48897E-02   -0.24327E-02 20664   0.144E-01    0.206E-01
RMM:   4    -0.648599784342E+03    0.57620E-03   -0.17267E-03 20321   0.405E-02    0.400E-02
RMM:   5    -0.648599770738E+03    0.13604E-04   -0.89327E-05 20363   0.923E-03    0.213E-02
RMM:   6    -0.648599762707E+03    0.80309E-05   -0.11110E-05 15618   0.331E-03
   9 F= -.65369768E+03 E0= -.65368179E+03  d E =-.664407E+01  mag=    -0.0000
       N       E                     dE             d eps       ncg     rms          rms(c)
DAV:   1    -0.649476469311E+03   -0.87670E+00   -0.25045E+01 26280   0.634E+00    0.182E+00
RMM:   2    -0.649403819254E+03    0.72650E-01   -0.50218E-01 20220   0.877E-01    0.898E-01
RMM:   3    -0.649374109620E+03    0.29710E-01   -0.77296E-02 20423   0.280E-01    0.198E-01
RMM:   4    -0.649373591629E+03    0.51799E-03   -0.36022E-03 20583   0.582E-02    0.903E-02
RMM:   5    -0.649373495750E+03    0.95879E-04   -0.32727E-04 20489   0.167E-02    0.412E-02
RMM:   6    -0.649373551502E+03   -0.55752E-04   -0.50681E-05 19841   0.686E-03    0.146E-02
RMM:   7    -0.649373632597E+03   -0.81095E-04   -0.11053E-05 16058   0.316E-03    0.663E-03
RMM:   8    -0.649373702851E+03   -0.70254E-04   -0.35718E-06 15284   0.177E-03    0.397E-03
RMM:   9    -0.649373811847E+03   -0.10900E-03   -0.54767E-06 15898   0.161E-03    0.238E-03
RMM:  10    -0.649373938847E+03   -0.12700E-03   -0.81286E-06 16126   0.173E-03    0.180E-03
RMM:  11    -0.649374060344E+03   -0.12150E-03   -0.93589E-06 15722   0.169E-03    0.770E-04
RMM:  12    -0.649374087249E+03   -0.26904E-04   -0.97982E-07 12519   0.738E-04    0.474E-04
RMM:  13    -0.649374107474E+03   -0.20226E-04   -0.47393E-07 11722   0.640E-04    0.263E-04
RMM:  14    -0.649374114522E+03   -0.70480E-05   -0.85012E-08 10700   0.558E-04
  10 F= -.65446671E+03 E0= -.65445203E+03  d E =-.769032E+00  mag=    -0.0000
       N       E                     dE             d eps       ncg     rms          rms(c)
DAV:   1    -0.649435299412E+03   -0.61192E-01   -0.27927E+00 27840   0.212E+00    0.600E-01
RMM:   2    -0.649427598187E+03    0.77012E-02   -0.55324E-02 20224   0.291E-01    0.298E-01
RMM:   3    -0.649424343724E+03    0.32545E-02   -0.86551E-03 20432   0.938E-02    0.626E-02
RMM:   4    -0.649424292162E+03    0.51562E-04   -0.36888E-04 20588   0.187E-02    0.289E-02
RMM:   5    -0.649424275617E+03    0.16545E-04   -0.30266E-05 17653   0.531E-03    0.131E-02
RMM:   6    -0.649424274416E+03    0.12012E-05   -0.57223E-06 14754   0.259E-03
  11 F= -.65451541E+03 E0= -.65450312E+03  d E =-.817730E+00  mag=     0.0000
       N       E                     dE             d eps       ncg     rms          rms(c)
DAV:   1    -0.649575661289E+03   -0.15139E+00   -0.42901E+00 22080   0.264E+00    0.844E-01
RMM:   2    -0.649549544573E+03    0.26117E-01   -0.10729E-01 20290   0.391E-01    0.364E-01
RMM:   3    -0.649545332222E+03    0.42124E-02   -0.14936E-02 20604   0.113E-01    0.125E-01
RMM:   4    -0.649544940020E+03    0.39220E-03   -0.87987E-04 20306   0.297E-02    0.317E-02
RMM:   5    -0.649544933781E+03    0.62388E-05   -0.70311E-05 20218   0.812E-03
  12 F= -.65463497E+03 E0= -.65462343E+03  d E =-.119569E+00  mag=     0.0000
       N       E                     dE             d eps       ncg     rms          rms(c)
DAV:   1    -0.649550201692E+03   -0.52617E-02   -0.19122E-01 26880   0.555E-01    0.178E-01
RMM:   2    -0.649549067576E+03    0.11341E-02   -0.47482E-03 20290   0.822E-02    0.775E-02
RMM:   3    -0.649548898444E+03    0.16913E-03   -0.65697E-04 20616   0.238E-02    0.271E-02
RMM:   4    -0.649548911579E+03   -0.13135E-04   -0.42071E-05 19780   0.648E-03    0.728E-03
RMM:   5    -0.649548938016E+03   -0.26437E-04   -0.40351E-06 14850   0.205E-03    0.357E-03
RMM:   6    -0.649548962060E+03   -0.24044E-04   -0.10114E-06 13866   0.104E-03    0.228E-03
RMM:   7    -0.649549008109E+03   -0.46050E-04   -0.18457E-06 14601   0.112E-03    0.121E-03
RMM:   8    -0.649549032282E+03   -0.24173E-04   -0.64677E-07 12227   0.665E-04    0.979E-04
RMM:   9    -0.649549080032E+03   -0.47750E-04   -0.22633E-06 13374   0.101E-03    0.605E-04
RMM:  10    -0.649549095312E+03   -0.15280E-04   -0.71915E-07 12404   0.714E-04    0.357E-04
RMM:  11    -0.649549102566E+03   -0.72544E-05   -0.14651E-07 10896   0.550E-04
  13 F= -.65463893E+03 E0= -.65462741E+03  d E =-.123521E+00  mag=     0.0000
       N       E                     dE             d eps       ncg     rms          rms(c)
DAV:   1    -0.649607853890E+03   -0.58759E-01   -0.14711E+00 24720   0.149E+00    0.436E-01
RMM:   2    -0.649602014289E+03    0.58396E-02   -0.25153E-02 20260   0.199E-01    0.214E-01
RMM:   3    -0.649599781612E+03    0.22327E-02   -0.47306E-03 20278   0.662E-02    0.466E-02
RMM:   4    -0.649599661596E+03    0.12002E-03   -0.23105E-04 20186   0.152E-02    0.187E-02
RMM:   5    -0.649599646856E+03    0.14739E-04   -0.21580E-05 16814   0.458E-03    0.933E-03
RMM:   6    -0.649599660677E+03   -0.13821E-04   -0.49156E-06 15142   0.236E-03    0.450E-03
RMM:   7    -0.649599703737E+03   -0.43060E-04   -0.37227E-06 15350   0.168E-03    0.238E-03
RMM:   8    -0.649599752800E+03   -0.49063E-04   -0.17423E-06 13412   0.102E-03    0.166E-03
RMM:   9    -0.649599837930E+03   -0.85130E-04   -0.66778E-06 16018   0.158E-03    0.998E-04
RMM:  10    -0.649599871389E+03   -0.33459E-04   -0.11420E-06 12103   0.769E-04    0.612E-04
RMM:  11    -0.649599892436E+03   -0.21047E-04   -0.77686E-07 12014   0.726E-04    0.398E-04
RMM:  12    -0.649599901145E+03   -0.87092E-05   -0.12025E-07 10714   0.570E-04
  14 F= -.65469199E+03 E0= -.65468041E+03  d E =-.530641E-01  mag=    -0.0000
       N       E                     dE             d eps       ncg     rms          rms(c)
DAV:   1    -0.649636685891E+03   -0.36793E-01   -0.27370E+00 23280   0.204E+00    0.599E-01
RMM:   2    -0.649625453352E+03    0.11233E-01   -0.47427E-02 20264   0.273E-01    0.290E-01
RMM:   3    -0.649621411286E+03    0.40421E-02   -0.83057E-03 20282   0.880E-02    0.688E-02
RMM:   4    -0.649621174017E+03    0.23727E-03   -0.50392E-04 20208   0.222E-02    0.256E-02
RMM:   5    -0.649621154526E+03    0.19491E-04   -0.47595E-05 19890   0.651E-03    0.122E-02
RMM:   6    -0.649621184382E+03   -0.29857E-04   -0.90712E-06 15778   0.294E-03    0.585E-03
RMM:   7    -0.649621237512E+03   -0.53129E-04   -0.51265E-06 15492   0.201E-03    0.346E-03
RMM:   8    -0.649621296753E+03   -0.59242E-04   -0.24042E-06 14609   0.116E-03    0.249E-03
RMM:   9    -0.649621444759E+03   -0.14801E-03   -0.12724E-05 16412   0.209E-03    0.141E-03
RMM:  10    -0.649621488117E+03   -0.43359E-04   -0.17116E-06 12757   0.918E-04    0.998E-04
RMM:  11    -0.649621540072E+03   -0.51955E-04   -0.26795E-06 14023   0.107E-03    0.546E-04
RMM:  12    -0.649621552393E+03   -0.12321E-04   -0.24237E-07 11294   0.559E-04    0.323E-04
RMM:  13    -0.649621565759E+03   -0.13366E-04   -0.34432E-07 11786   0.644E-04    0.193E-04
RMM:  14    -0.649621569553E+03   -0.37936E-05   -0.64609E-08 10607   0.522E-04
  15 F= -.65471682E+03 E0= -.65470502E+03  d E =-.778955E-01  mag=    -0.0000
       N       E                     dE             d eps       ncg     rms          rms(c)
DAV:   1    -0.649648487688E+03   -0.26922E-01   -0.14051E+00 22560   0.153E+00    0.427E-01
RMM:   2    -0.649641615958E+03    0.68717E-02   -0.23394E-02 20236   0.177E-01    0.216E-01
RMM:   3    -0.649639449984E+03    0.21660E-02   -0.40173E-03 20198   0.582E-02    0.686E-02
RMM:   4    -0.649639172913E+03    0.27707E-03   -0.39932E-04 20422   0.188E-02    0.252E-02
RMM:   5    -0.649639137974E+03    0.34938E-04   -0.41925E-05 19859   0.595E-03    0.116E-02
RMM:   6    -0.649639185132E+03   -0.47157E-04   -0.63949E-06 15742   0.239E-03    0.593E-03
RMM:   7    -0.649639273036E+03   -0.87905E-04   -0.84812E-06 16138   0.230E-03    0.303E-03
RMM:   8    -0.649639356123E+03   -0.83087E-04   -0.37968E-06 14796   0.133E-03    0.217E-03
RMM:   9    -0.649639491143E+03   -0.13502E-03   -0.12342E-05 16378   0.205E-03    0.130E-03
RMM:  10    -0.649639527517E+03   -0.36374E-04   -0.12902E-06 12487   0.820E-04    0.867E-04
RMM:  11    -0.649639575838E+03   -0.48320E-04   -0.19538E-06 13116   0.994E-04    0.521E-04
RMM:  12    -0.649639587401E+03   -0.11564E-04   -0.16166E-07 10982   0.595E-04    0.260E-04
RMM:  13    -0.649639599145E+03   -0.11743E-04   -0.37278E-07 11988   0.712E-04    0.134E-04
RMM:  14    -0.649639601201E+03   -0.20563E-05   -0.35842E-08 10370   0.524E-04
  16 F= -.65474518E+03 E0= -.65473362E+03  d E =-.283584E-01  mag=    -0.0000
       N       E                     dE             d eps       ncg     rms          rms(c)
DAV:   1    -0.649639191745E+03    0.40740E-03   -0.19232E-01 25680   0.568E-01    0.158E-01
RMM:   2    -0.649638263363E+03    0.92838E-03   -0.31918E-03 20236   0.656E-02    0.800E-02
RMM:   3    -0.649637966113E+03    0.29725E-03   -0.54888E-04 20198   0.215E-02    0.252E-02
RMM:   4    -0.649637921123E+03    0.44990E-04   -0.53327E-05 20216   0.690E-03    0.936E-03
RMM:   5    -0.649637912450E+03    0.86731E-05   -0.52917E-06 15049   0.230E-03
  17 F= -.65474732E+03 E0= -.65473582E+03  d E =-.304955E-01  mag=    -0.0000
       N       E                     dE             d eps       ncg     rms          rms(c)
DAV:   1    -0.649646988785E+03   -0.90677E-02   -0.69297E-01 26400   0.106E+00    0.326E-01
RMM:   2    -0.649643047168E+03    0.39416E-02   -0.11278E-02 20160   0.127E-01    0.178E-01
RMM:   3    -0.649640789422E+03    0.22577E-02   -0.39608E-03 20174   0.588E-02    0.257E-02
RMM:   4    -0.649640758436E+03    0.30986E-04   -0.12607E-04 20493   0.106E-02    0.161E-02
RMM:   5    -0.649640800250E+03   -0.41814E-04   -0.10822E-05 16106   0.310E-03    0.966E-03
RMM:   6    -0.649640915676E+03   -0.11543E-03   -0.17465E-05 16524   0.337E-03    0.442E-03
RMM:   7    -0.649641042431E+03   -0.12675E-03   -0.10036E-05 16274   0.227E-03    0.304E-03
RMM:   8    -0.649641178627E+03   -0.13620E-03   -0.87234E-06 15973   0.177E-03    0.197E-03
RMM:   9    -0.649641285904E+03   -0.10728E-03   -0.68753E-06 14991   0.155E-03    0.133E-03
RMM:  10    -0.649641344374E+03   -0.58470E-04   -0.25380E-06 13695   0.106E-03    0.668E-04
RMM:  11    -0.649641381210E+03   -0.36837E-04   -0.11087E-06 12489   0.819E-04    0.445E-04
RMM:  12    -0.649641395941E+03   -0.14730E-04   -0.28514E-07 11642   0.635E-04    0.208E-04
RMM:  13    -0.649641402924E+03   -0.69837E-05   -0.12417E-07 11053   0.620E-04
  18 F= -.65475861E+03 E0= -.65474723E+03  d E =-.112970E-01  mag=    -0.0000
       N       E                     dE             d eps       ncg     rms          rms(c)
DAV:   1    -0.649641061428E+03    0.33451E-03   -0.16479E-03 28560   0.518E-02    0.159E-02
RMM:   2    -0.649641052606E+03    0.88222E-05   -0.25319E-05 17197   0.606E-03
  19 F= -.65475864E+03 E0= -.65474728E+03  d E =-.113266E-01  mag=    -0.0000
       N       E                     dE             d eps       ncg     rms          rms(c)
DAV:   1    -0.649654253195E+03   -0.13192E-01   -0.40756E-01 26880   0.738E-01    0.323E-01
RMM:   2    -0.649648452713E+03    0.58005E-02   -0.89043E-03 20160   0.102E-01    0.175E-01
RMM:   3    -0.649645321928E+03    0.31308E-02   -0.52817E-03 20160   0.650E-02    0.292E-02
RMM:   4    -0.649645251266E+03    0.70662E-04   -0.13691E-04 20386   0.110E-02    0.189E-02
RMM:   5    -0.649645281268E+03   -0.30002E-04   -0.21258E-05 17176   0.411E-03    0.103E-02
RMM:   6    -0.649645400318E+03   -0.11905E-03   -0.24171E-05 16796   0.401E-03    0.494E-03
RMM:   7    -0.649645546811E+03   -0.14649E-03   -0.11173E-05 16320   0.235E-03    0.341E-03
RMM:   8    -0.649645751517E+03   -0.20471E-03   -0.18880E-05 16711   0.242E-03    0.198E-03
RMM:   9    -0.649645829461E+03   -0.77944E-04   -0.43615E-06 13952   0.131E-03    0.141E-03
RMM:  10    -0.649645907636E+03   -0.78174E-04   -0.39036E-06 14495   0.126E-03    0.773E-04
RMM:  11    -0.649645940540E+03   -0.32904E-04   -0.87286E-07 12414   0.744E-04    0.467E-04
RMM:  12    -0.649645959608E+03   -0.19068E-04   -0.35379E-07 11838   0.673E-04    0.249E-04
RMM:  13    -0.649645966003E+03   -0.63957E-05   -0.97808E-08 10835   0.597E-04
  20 F= -.65476767E+03 E0= -.65475621E+03  d E =-.902969E-02  mag=     0.0000
       N       E                     dE             d eps       ncg     rms          rms(c)
DAV:   1    -0.649703996702E+03   -0.58037E-01   -0.28661E+00 25440   0.196E+00    0.851E-01
RMM:   2    -0.649664522162E+03    0.39475E-01   -0.62270E-02 20160   0.270E-01    0.462E-01
RMM:   3    -0.649644169008E+03    0.20353E-01   -0.37198E-02 20160   0.173E-01    0.745E-02
RMM:   4    -0.649644026175E+03    0.14283E-03   -0.87795E-04 20390   0.280E-02    0.489E-02
RMM:   5    -0.649644294184E+03   -0.26801E-03   -0.14857E-04 20290   0.106E-02    0.273E-02
RMM:   6    -0.649644870327E+03   -0.57614E-03   -0.18395E-04 20160   0.108E-02    0.130E-02
RMM:   7    -0.649645402453E+03   -0.53213E-03   -0.64680E-05 17238   0.565E-03    0.924E-03
RMM:   8    -0.649646072421E+03   -0.66997E-03   -0.84727E-05 17258   0.571E-03    0.595E-03
RMM:   9    -0.649646447925E+03   -0.37550E-03   -0.49180E-05 17006   0.412E-03    0.384E-03
RMM:  10    -0.649646708879E+03   -0.26095E-03   -0.24214E-05 16755   0.280E-03    0.198E-03
RMM:  11    -0.649646809337E+03   -0.10046E-03   -0.42945E-06 13742   0.129E-03    0.117E-03
RMM:  12    -0.649646885431E+03   -0.76094E-04   -0.23348E-06 14780   0.124E-03    0.712E-04
RMM:  13    -0.649646910775E+03   -0.25345E-04   -0.59620E-07 11966   0.725E-04    0.288E-04
RMM:  14    -0.649646918836E+03   -0.80610E-05   -0.92769E-08 11076   0.593E-04
  21 F= -.65477918E+03 E0= -.65476779E+03  d E =-.205372E-01  mag=    -0.0000
       N       E                     dE             d eps       ncg     rms          rms(c)
DAV:   1    -0.649651536578E+03   -0.46258E-02   -0.13734E-01 26880   0.432E-01    0.191E-01
RMM:   2    -0.649649511834E+03    0.20247E-02   -0.28769E-03 20160   0.580E-02    0.103E-01
RMM:   3    -0.649648380402E+03    0.11314E-02   -0.18130E-03 20160   0.380E-02    0.161E-02
RMM:   4    -0.649648342778E+03    0.37624E-04   -0.41373E-05 19169   0.615E-03    0.105E-02
RMM:   5    -0.649648339947E+03    0.28308E-05   -0.67697E-06 15608   0.243E-03
  22 F= -.65478513E+03 E0= -.65477396E+03  d E =-.595286E-02  mag=     0.0000
       N       E                     dE             d eps       ncg     rms          rms(c)
DAV:   1    -0.649676257719E+03   -0.27915E-01   -0.12365E+00 24960   0.130E+00    0.569E-01
RMM:   2    -0.649658032445E+03    0.18225E-01   -0.25870E-02 20160   0.174E-01    0.310E-01
RMM:   3    -0.649648359575E+03    0.96729E-02   -0.16992E-02 20160   0.116E-01    0.457E-02
RMM:   4    -0.649648367604E+03   -0.80288E-05   -0.35656E-04 20366   0.180E-02    0.305E-02
RMM:   5    -0.649648545309E+03   -0.17771E-03   -0.66604E-05 19612   0.694E-03    0.179E-02
RMM:   6    -0.649648937656E+03   -0.39235E-03   -0.10573E-04 20160   0.785E-03    0.929E-03
RMM:   7    -0.649649382524E+03   -0.44487E-03   -0.48805E-05 17046   0.473E-03    0.692E-03
RMM:   8    -0.649649895106E+03   -0.51258E-03   -0.62072E-05 17130   0.474E-03    0.384E-03
RMM:   9    -0.649650131727E+03   -0.23662E-03   -0.24689E-05 16776   0.282E-03    0.245E-03
RMM:  10    -0.649650252475E+03   -0.12075E-03   -0.62348E-06 14032   0.150E-03    0.151E-03
RMM:  11    -0.649650347111E+03   -0.94635E-04   -0.40486E-06 14472   0.132E-03    0.856E-04
RMM:  12    -0.649650387971E+03   -0.40860E-04   -0.87597E-07 12753   0.830E-04    0.428E-04
RMM:  13    -0.649650407882E+03   -0.19911E-04   -0.43262E-07 12133   0.725E-04    0.226E-04
RMM:  14    -0.649650411579E+03   -0.36968E-05   -0.30895E-08 10476   0.544E-04
  23 F= -.65480066E+03 E0= -.65479006E+03  d E =-.214754E-01  mag=    -0.0000
       N       E                     dE             d eps       ncg     rms          rms(c)
DAV:   1    -0.649740866094E+03   -0.90458E-01   -0.50105E+00 26880   0.262E+00    0.114E+00
RMM:   2    -0.649670673540E+03    0.70193E-01   -0.10379E-01 20160   0.349E-01    0.624E-01
RMM:   3    -0.649633058769E+03    0.37615E-01   -0.70064E-02 20160   0.236E-01    0.833E-02
RMM:   4    -0.649633191402E+03   -0.13263E-03   -0.13182E-03 20382   0.350E-02    0.503E-02
RMM:   5    -0.649633820809E+03   -0.62941E-03   -0.30468E-04 20292   0.147E-02    0.293E-02
RMM:   6    -0.649634750773E+03   -0.92996E-03   -0.26420E-04 20160   0.127E-02    0.174E-02
RMM:   7    -0.649635644331E+03   -0.89356E-03   -0.13232E-04 19662   0.812E-03    0.128E-02
RMM:   8    -0.649636742266E+03   -0.10979E-02   -0.18001E-04 18332   0.842E-03    0.716E-03
RMM:   9    -0.649637220697E+03   -0.47843E-03   -0.70099E-05 17200   0.506E-03    0.459E-03
RMM:  10    -0.649637568707E+03   -0.34801E-03   -0.36382E-05 16888   0.353E-03    0.249E-03
RMM:  11    -0.649637658775E+03   -0.90067E-04   -0.36979E-06 14183   0.132E-03    0.135E-03
RMM:  12    -0.649637744045E+03   -0.85270E-04   -0.27558E-06 14755   0.128E-03    0.866E-04
RMM:  13    -0.649637771148E+03   -0.27104E-04   -0.64142E-07 12053   0.744E-04    0.369E-04
RMM:  14    -0.649637781887E+03   -0.10739E-04   -0.14649E-07 11466   0.624E-04    0.195E-04
RMM:  15    -0.649637784471E+03   -0.25833E-05   -0.48359E-08 10492   0.552E-04
  24 F= -.65481428E+03 E0= -.65480442E+03  d E =-.350994E-01  mag=    -0.0000
       N       E                     dE             d eps       ncg     rms          rms(c)
DAV:   1    -0.649658095492E+03   -0.20314E-01   -0.84894E-01 26880   0.105E+00    0.466E-01
RMM:   2    -0.649646477631E+03    0.11618E-01   -0.18080E-02 20160   0.149E-01    0.256E-01
RMM:   3    -0.649639683141E+03    0.67945E-02   -0.11925E-02 20160   0.980E-02    0.370E-02
RMM:   4    -0.649639712972E+03   -0.29831E-04   -0.19222E-04 20402   0.138E-02    0.221E-02
RMM:   5    -0.649639860328E+03   -0.14736E-03   -0.65281E-05 19974   0.696E-03    0.111E-02
RMM:   6    -0.649640051107E+03   -0.19078E-03   -0.27871E-05 16928   0.422E-03    0.740E-03
RMM:   7    -0.649640355994E+03   -0.30489E-03   -0.31742E-05 16938   0.394E-03    0.517E-03
RMM:   8    -0.649640597428E+03   -0.24143E-03   -0.20002E-05 16714   0.271E-03    0.350E-03
RMM:   9    -0.649640839619E+03   -0.24219E-03   -0.23353E-05 16804   0.272E-03    0.196E-03
RMM:  10    -0.649640932657E+03   -0.93038E-04   -0.50978E-06 14216   0.138E-03    0.123E-03
RMM:  11    -0.649640999668E+03   -0.67011E-04   -0.27124E-06 13535   0.112E-03    0.853E-04
RMM:  12    -0.649641029125E+03   -0.29457E-04   -0.67511E-07 12288   0.773E-04    0.366E-04
RMM:  13    -0.649641047110E+03   -0.17985E-04   -0.47473E-07 12676   0.755E-04    0.258E-04
RMM:  14    -0.649641049488E+03   -0.23777E-05   -0.19768E-08 10396   0.489E-04
  25 F= -.65482410E+03 E0= -.65481435E+03  d E =-.981726E-02  mag=     0.0000
       N       E                     dE             d eps       ncg     rms          rms(c)
DAV:   1    -0.649711747967E+03   -0.70701E-01   -0.39627E+00 26400   0.227E+00    0.994E-01
RMM:   2    -0.649659224160E+03    0.52524E-01   -0.83290E-02 20160   0.320E-01    0.554E-01
RMM:   3    -0.649629257344E+03    0.29967E-01   -0.56372E-02 20160   0.213E-01    0.818E-02
RMM:   4    -0.649629459454E+03   -0.20211E-03   -0.88802E-04 20400   0.297E-02    0.522E-02
RMM:   5    -0.649630004428E+03   -0.54497E-03   -0.25370E-04 20348   0.142E-02    0.281E-02
RMM:   6    -0.649630590465E+03   -0.58604E-03   -0.20165E-04 20160   0.112E-02    0.167E-02
RMM:   7    -0.649631551237E+03   -0.96077E-03   -0.17690E-04 20106   0.945E-03    0.112E-02
RMM:   8    -0.649632380050E+03   -0.82881E-03   -0.11262E-04 17508   0.683E-03    0.754E-03
RMM:   9    -0.649632927047E+03   -0.54700E-03   -0.78363E-05 17280   0.532E-03    0.413E-03
RMM:  10    -0.649633224239E+03   -0.29719E-03   -0.30738E-05 16888   0.331E-03    0.263E-03
RMM:  11    -0.649633330063E+03   -0.10582E-03   -0.50164E-06 14383   0.145E-03    0.128E-03
RMM:  12    -0.649633398519E+03   -0.68456E-04   -0.22883E-06 14443   0.120E-03    0.879E-04
RMM:  13    -0.649633425264E+03   -0.26745E-04   -0.66512E-07 12122   0.721E-04    0.476E-04
RMM:  14    -0.649633432368E+03   -0.71039E-05   -0.77475E-08 10928   0.539E-04
  26 F= -.65483009E+03 E0= -.65482009E+03  d E =-.158054E-01  mag=    -0.0000
       N       E                     dE             d eps       ncg     rms          rms(c)
DAV:   1    -0.649640240955E+03   -0.68157E-02   -0.17535E-01 26880   0.478E-01    0.213E-01
RMM:   2    -0.649637840756E+03    0.24002E-02   -0.37434E-03 20160   0.677E-02    0.116E-01
RMM:   3    -0.649636543086E+03    0.12977E-02   -0.23664E-03 20160   0.437E-02    0.170E-02
RMM:   4    -0.649636511134E+03    0.31951E-04   -0.41254E-05 18825   0.628E-03    0.116E-02
RMM:   5    -0.649636488899E+03    0.22235E-04   -0.90378E-06 15780   0.290E-03    0.599E-03
RMM:   6    -0.649636486836E+03    0.20631E-05   -0.67647E-06 15671   0.228E-03
  27 F= -.65483033E+03 E0= -.65482043E+03  d E =-.160530E-01  mag=     0.0000
       N       E                     dE             d eps       ncg     rms          rms(c)
DAV:   1    -0.649650096808E+03   -0.13608E-01   -0.48603E-01 26880   0.784E-01    0.365E-01
RMM:   2    -0.649643250761E+03    0.68460E-02   -0.10583E-02 20160   0.112E-01    0.201E-01
RMM:   3    -0.649639167696E+03    0.40831E-02   -0.71627E-03 20160   0.760E-02    0.302E-02
RMM:   4    -0.649639119014E+03    0.48682E-04   -0.12692E-04 20316   0.110E-02    0.202E-02
RMM:   5    -0.649639128899E+03   -0.98846E-05   -0.22340E-05 17240   0.444E-03
  28 F= -.65483402E+03 E0= -.65482402E+03  d E =-.368326E-02  mag=     0.0000
       N       E                     dE             d eps       ncg     rms          rms(c)
DAV:   1    -0.649644450907E+03   -0.53319E-02   -0.25506E-01 26400   0.569E-01    0.266E-01
RMM:   2    -0.649640289634E+03    0.41613E-02   -0.56550E-03 20162   0.815E-02    0.146E-01
RMM:   3    -0.649637908770E+03    0.23809E-02   -0.38570E-03 20160   0.555E-02    0.231E-02
RMM:   4    -0.649637997173E+03   -0.88403E-04   -0.74439E-05 20066   0.823E-03    0.162E-02
RMM:   5    -0.649638186728E+03   -0.18956E-03   -0.23416E-05 16950   0.409E-03    0.863E-03
RMM:   6    -0.649638432917E+03   -0.24619E-03   -0.31795E-05 16980   0.422E-03    0.546E-03
RMM:   7    -0.649638699983E+03   -0.26707E-03   -0.24932E-05 16792   0.324E-03    0.350E-03
RMM:   8    -0.649638954486E+03   -0.25450E-03   -0.24005E-05 16808   0.280E-03    0.209E-03
RMM:   9    -0.649639046067E+03   -0.91581E-04   -0.52204E-06 14024   0.136E-03    0.130E-03
RMM:  10    -0.649639119962E+03   -0.73895E-04   -0.33604E-06 14214   0.124E-03    0.739E-04
RMM:  11    -0.649639151612E+03   -0.31649E-04   -0.89109E-07 12378   0.751E-04    0.469E-04
RMM:  12    -0.649639170730E+03   -0.19118E-04   -0.46988E-07 12444   0.713E-04    0.211E-04
RMM:  13    -0.649639175562E+03   -0.48321E-05   -0.62694E-08 10793   0.540E-04
  29 F= -.65483479E+03 E0= -.65482468E+03  d E =-.445292E-02  mag=    -0.0000
       N       E                     dE             d eps       ncg     rms          rms(c)
DAV:   1    -0.649640397541E+03   -0.12268E-02   -0.33446E-02 27600   0.206E-01    0.965E-02
RMM:   2    -0.649639904030E+03    0.49351E-03   -0.73134E-04 20160   0.293E-02    0.526E-02
RMM:   3    -0.649639628610E+03    0.27542E-03   -0.48513E-04 20160   0.198E-02    0.805E-03
RMM:   4    -0.649639619510E+03    0.90999E-05   -0.79207E-06 15502   0.289E-03
  30 F= -.65483497E+03 E0= -.65482490E+03  d E =-.463961E-02  mag=     0.0000
       N       E                     dE             d eps       ncg     rms          rms(c)
DAV:   1    -0.649639898263E+03   -0.26965E-03   -0.65838E-03 27360   0.913E-02    0.431E-02
RMM:   2    -0.649639778143E+03    0.12012E-03   -0.15149E-04 20160   0.133E-02    0.236E-02
RMM:   3    -0.649639706673E+03    0.71470E-04   -0.10350E-04 20160   0.902E-03    0.452E-03
RMM:   4    -0.649639708204E+03   -0.15307E-05   -0.21255E-06 14628   0.147E-03
  31 F= -.65483495E+03 E0= -.65482489E+03  d E =-.461308E-02  mag=     0.0000
       N       E                     dE             d eps       ncg     rms          rms(c)
DAV:   1    -0.649640735431E+03   -0.10288E-02   -0.72957E-02 26880   0.325E-01    0.117E-01
RMM:   2    -0.649640186841E+03    0.54859E-03   -0.16193E-03 20160   0.478E-02    0.632E-02
RMM:   3    -0.649639940651E+03    0.24619E-03   -0.57194E-04 20240   0.224E-02    0.936E-03
RMM:   4    -0.649639937798E+03    0.28528E-05   -0.15343E-05 16092   0.398E-03
  32 F= -.65483708E+03 E0= -.65482699E+03  d E =-.213538E-02  mag=     0.0000
       N       E                     dE             d eps       ncg     rms          rms(c)
DAV:   1    -0.649645080599E+03   -0.51399E-02   -0.65713E-01 24720   0.977E-01    0.350E-01
RMM:   2    -0.649639209660E+03    0.58709E-02   -0.14772E-02 20160   0.144E-01    0.190E-01
RMM:   3    -0.649635977898E+03    0.32318E-02   -0.53130E-03 20240   0.679E-02    0.293E-02
RMM:   4    -0.649635925137E+03    0.52761E-04   -0.17120E-04 20402   0.125E-02    0.172E-02
RMM:   5    -0.649636004225E+03   -0.79089E-04   -0.26274E-05 17512   0.461E-03    0.942E-03
RMM:   6    -0.649636166318E+03   -0.16209E-03   -0.22268E-05 16755   0.378E-03    0.507E-03
RMM:   7    -0.649636339374E+03   -0.17306E-03   -0.12405E-05 16384   0.244E-03    0.364E-03
RMM:   8    -0.649636574970E+03   -0.23560E-03   -0.20102E-05 16744   0.262E-03    0.209E-03
RMM:   9    -0.649636676797E+03   -0.10183E-03   -0.68407E-06 15135   0.156E-03    0.139E-03
RMM:  10    -0.649636754121E+03   -0.77325E-04   -0.36292E-06 13907   0.121E-03    0.720E-04
RMM:  11    -0.649636790032E+03   -0.35911E-04   -0.11782E-06 12611   0.810E-04    0.459E-04
RMM:  12    -0.649636807273E+03   -0.17241E-04   -0.33113E-07 11814   0.640E-04    0.245E-04
RMM:  13    -0.649636818123E+03   -0.10850E-04   -0.27675E-07 11803   0.657E-04    0.117E-04
RMM:  14    -0.649636819324E+03   -0.12011E-05   -0.25145E-08 10227   0.511E-04
  33 F= -.65483965E+03 E0= -.65482940E+03  d E =-.470299E-02  mag=     0.0000
       N       E                     dE             d eps       ncg     rms          rms(c)
DAV:   1    -0.649637348157E+03   -0.53003E-03   -0.31016E-02 27360   0.212E-01    0.694E-02
RMM:   2    -0.649637133025E+03    0.21513E-03   -0.64545E-04 20160   0.299E-02    0.386E-02
RMM:   3    -0.649636993198E+03    0.13983E-03   -0.22071E-04 20226   0.139E-02    0.573E-03
RMM:   4    -0.649636985643E+03    0.75550E-05   -0.48058E-06 15136   0.235E-03
  34 F= -.65484081E+03 E0= -.65483052E+03  d E =-.116286E-02  mag=     0.0000
       N       E                     dE             d eps       ncg     rms          rms(c)
DAV:   1    -0.649639655857E+03   -0.26627E-02   -0.27924E-01 25920   0.636E-01    0.209E-01
RMM:   2    -0.649637603766E+03    0.20521E-02   -0.58554E-03 20160   0.903E-02    0.116E-01
RMM:   3    -0.649636345174E+03    0.12586E-02   -0.20022E-03 20228   0.419E-02    0.177E-02
RMM:   4    -0.649636341367E+03    0.38072E-05   -0.54945E-05 19946   0.719E-03
  35 F= -.65484314E+03 E0= -.65483273E+03  d E =-.349472E-02  mag=     0.0000
       N       E                     dE             d eps       ncg     rms          rms(c)
DAV:   1    -0.649643947092E+03   -0.76019E-02   -0.11189E+00 24480   0.127E+00    0.418E-01
RMM:   2    -0.649635792028E+03    0.81551E-02   -0.23638E-02 20160   0.181E-01    0.233E-01
RMM:   3    -0.649631020216E+03    0.47718E-02   -0.80991E-03 20226   0.843E-02    0.362E-02
RMM:   4    -0.649631104760E+03   -0.84545E-04   -0.22604E-04 20384   0.145E-02    0.231E-02
RMM:   5    -0.649631316984E+03   -0.21222E-03   -0.37895E-05 18261   0.549E-03    0.136E-02
RMM:   6    -0.649631668395E+03   -0.35141E-03   -0.47923E-05 17590   0.535E-03    0.720E-03
RMM:   7    -0.649631958444E+03   -0.29005E-03   -0.24905E-05 16824   0.348E-03    0.556E-03
RMM:   8    -0.649632244540E+03   -0.28610E-03   -0.22497E-05 16778   0.290E-03    0.340E-03
RMM:   9    -0.649632515907E+03   -0.27137E-03   -0.28004E-05 16862   0.301E-03    0.195E-03
RMM:  10    -0.649632598113E+03   -0.82207E-04   -0.44275E-06 13907   0.131E-03    0.117E-03
RMM:  11    -0.649632669466E+03   -0.71352E-04   -0.29670E-06 13957   0.118E-03    0.713E-04
RMM:  12    -0.649632697408E+03   -0.27942E-04   -0.69622E-07 12193   0.727E-04    0.376E-04
RMM:  13    -0.649632713726E+03   -0.16317E-04   -0.36951E-07 12179   0.689E-04    0.180E-04
RMM:  14    -0.649632717168E+03   -0.34427E-05   -0.42263E-08 10598   0.531E-04
  36 F= -.65484541E+03 E0= -.65483471E+03  d E =-.576425E-02  mag=    -0.0000
       N       E                     dE             d eps       ncg     rms          rms(c)
DAV:   1    -0.649637379922E+03   -0.46662E-02   -0.26844E-01 26640   0.617E-01    0.199E-01
RMM:   2    -0.649635627487E+03    0.17524E-02   -0.58094E-03 20160   0.904E-02    0.110E-01
RMM:   3    -0.649634579401E+03    0.10481E-02   -0.16800E-03 20226   0.387E-02    0.194E-02
RMM:   4    -0.649634538377E+03    0.41025E-04   -0.61128E-05 20136   0.753E-03    0.111E-02
RMM:   5    -0.649634549409E+03   -0.11032E-04   -0.55774E-06 15376   0.238E-03    0.655E-03
RMM:   6    -0.649634591828E+03   -0.42419E-04   -0.49240E-06 15598   0.198E-03    0.289E-03
RMM:   7    -0.649634652594E+03   -0.60767E-04   -0.27676E-06 14698   0.124E-03    0.198E-03
RMM:   8    -0.649634759345E+03   -0.10675E-03   -0.72955E-06 15792   0.160E-03    0.110E-03
RMM:   9    -0.649634800590E+03   -0.41245E-04   -0.17757E-06 12979   0.921E-04    0.677E-04
RMM:  10    -0.649634829711E+03   -0.29121E-04   -0.11022E-06 12347   0.791E-04    0.404E-04
RMM:  11    -0.649634844337E+03   -0.14627E-04   -0.35431E-07 11630   0.642E-04    0.257E-04
RMM:  12    -0.649634852893E+03   -0.85555E-05   -0.16165E-07 11097   0.604E-04
  37 F= -.65484775E+03 E0= -.65483701E+03  d E =-.233783E-02  mag=     0.0000
       N       E                     dE             d eps       ncg     rms          rms(c)
DAV:   1    -0.649638164582E+03   -0.33202E-02   -0.28813E-01 25200   0.639E-01    0.207E-01
RMM:   2    -0.649636276274E+03    0.18883E-02   -0.62283E-03 20160   0.937E-02    0.114E-01
RMM:   3    -0.649635151815E+03    0.11245E-02   -0.18031E-03 20228   0.401E-02    0.201E-02
RMM:   4    -0.649635109814E+03    0.42001E-04   -0.65125E-05 20150   0.778E-03    0.116E-02
RMM:   5    -0.649635122914E+03   -0.13099E-04   -0.59821E-06 15449   0.246E-03    0.682E-03
RMM:   6    -0.649635170380E+03   -0.47466E-04   -0.54072E-06 15692   0.206E-03    0.299E-03
RMM:   7    -0.649635235921E+03   -0.65541E-04   -0.30238E-06 14922   0.130E-03    0.206E-03
RMM:   8    -0.649635346630E+03   -0.11071E-03   -0.74797E-06 15772   0.161E-03    0.116E-03
RMM:   9    -0.649635389761E+03   -0.43131E-04   -0.18591E-06 13050   0.938E-04    0.757E-04
RMM:  10    -0.649635421257E+03   -0.31496E-04   -0.12050E-06 12488   0.814E-04    0.431E-04
RMM:  11    -0.649635439375E+03   -0.18118E-04   -0.48232E-07 11984   0.679E-04    0.268E-04
RMM:  12    -0.649635448209E+03   -0.88335E-05   -0.11465E-07 10875   0.581E-04
  38 F= -.65484854E+03 E0= -.65483775E+03  d E =-.312978E-02  mag=    -0.0000
       N       E                     dE             d eps       ncg     rms          rms(c)
DAV:   1    -0.649638220253E+03   -0.27809E-02   -0.12092E-01 26280   0.419E-01    0.107E-01
RMM:   2    -0.649637871262E+03    0.34899E-03   -0.24440E-03 20160   0.602E-02    0.599E-02
RMM:   3    -0.649637656131E+03    0.21513E-03   -0.38809E-04 20276   0.196E-02    0.129E-02
RMM:   4    -0.649637641119E+03    0.15012E-04   -0.17351E-05 16234   0.434E-03    0.608E-03
RMM:   5    -0.649637641783E+03   -0.66430E-06   -0.28443E-06 14769   0.197E-03
  39 F= -.65485059E+03 E0= -.65483978E+03  d E =-.205096E-02  mag=     0.0000
       N       E                     dE             d eps       ncg     rms          rms(c)
DAV:   1    -0.649646247747E+03   -0.86066E-02   -0.10887E+00 22560   0.126E+00    0.321E-01
RMM:   2    -0.649643064573E+03    0.31832E-02   -0.22105E-02 20160   0.181E-01    0.179E-01
RMM:   3    -0.649641202044E+03    0.18625E-02   -0.34933E-03 20274   0.588E-02    0.391E-02
RMM:   4    -0.649641167241E+03    0.34803E-04   -0.17797E-04 20342   0.132E-02    0.186E-02
RMM:   5    -0.649641220267E+03   -0.53026E-04   -0.17728E-05 16593   0.425E-03    0.102E-02
RMM:   6    -0.649641323673E+03   -0.10341E-03   -0.93480E-06 16040   0.287E-03    0.462E-03
RMM:   7    -0.649641456149E+03   -0.13248E-03   -0.71753E-06 16086   0.200E-03    0.282E-03
RMM:   8    -0.649641550776E+03   -0.94627E-04   -0.37815E-06 14358   0.136E-03    0.201E-03
RMM:   9    -0.649641685934E+03   -0.13516E-03   -0.99757E-06 16282   0.187E-03    0.120E-03
RMM:  10    -0.649641738705E+03   -0.52770E-04   -0.22737E-06 12924   0.101E-03    0.701E-04
RMM:  11    -0.649641772353E+03   -0.33648E-04   -0.12721E-06 12658   0.860E-04    0.397E-04
RMM:  12    -0.649641785177E+03   -0.12824E-04   -0.23256E-07 11362   0.617E-04    0.247E-04
RMM:  13    -0.649641796375E+03   -0.11197E-04   -0.34190E-07 11939   0.681E-04    0.109E-04
RMM:  14    -0.649641798648E+03   -0.22736E-05   -0.34104E-08 10454   0.525E-04
  40 F= -.65485431E+03 E0= -.65484344E+03  d E =-.576466E-02  mag=     0.0000
       N       E                     dE             d eps       ncg     rms          rms(c)
DAV:   1    -0.649643008292E+03   -0.12119E-02   -0.17011E-01 26160   0.497E-01    0.127E-01
RMM:   2    -0.649642520358E+03    0.48793E-03   -0.34404E-03 20160   0.714E-02    0.710E-02
RMM:   3    -0.649642217663E+03    0.30270E-03   -0.54513E-04 20284   0.232E-02    0.154E-02
RMM:   4    -0.649642197183E+03    0.20480E-04   -0.25413E-05 17185   0.517E-03    0.726E-03
RMM:   5    -0.649642198855E+03   -0.16722E-05   -0.33818E-06 14842   0.211E-03
  41 F= -.65485453E+03 E0= -.65484363E+03  d E =-.598263E-02  mag=    -0.0000
       N       E                     dE             d eps       ncg     rms          rms(c)
DAV:   1    -0.649643664647E+03   -0.14675E-02   -0.58753E-02 26640   0.292E-01    0.673E-02
RMM:   2    -0.649643536448E+03    0.12820E-03   -0.11496E-03 20160   0.414E-02    0.379E-02
RMM:   3    -0.649643466652E+03    0.69796E-04   -0.14219E-04 20308   0.121E-02    0.923E-03
RMM:   4    -0.649643479353E+03   -0.12701E-04   -0.73061E-06 15364   0.287E-03    0.387E-03
RMM:   5    -0.649643498984E+03   -0.19631E-04   -0.18275E-06 14648   0.149E-03    0.195E-03
RMM:   6    -0.649643523429E+03   -0.24445E-04   -0.84898E-07 12697   0.942E-04    0.107E-03
RMM:   7    -0.649643548770E+03   -0.25340E-04   -0.71981E-07 12739   0.809E-04    0.760E-04
RMM:   8    -0.649643569650E+03   -0.20881E-04   -0.60868E-07 12327   0.711E-04    0.471E-04
RMM:   9    -0.649643592287E+03   -0.22637E-04   -0.10213E-06 12909   0.782E-04    0.274E-04
RMM:  10    -0.649643596992E+03   -0.47054E-05   -0.78417E-08 10632   0.499E-04
  42 F= -.65485610E+03 E0= -.65484519E+03  d E =-.157515E-02  mag=    -0.0000
       N       E                     dE             d eps       ncg     rms          rms(c)
DAV:   1    -0.649648004873E+03   -0.44126E-02   -0.52871E-01 23280   0.874E-01    0.203E-01
RMM:   2    -0.649647053520E+03    0.95135E-03   -0.10279E-02 20160   0.124E-01    0.114E-01
RMM:   3    -0.649646474026E+03    0.57949E-03   -0.12671E-03 20358   0.363E-02    0.272E-02
RMM:   4    -0.649646450838E+03    0.23187E-04   -0.67653E-05 20296   0.836E-03    0.111E-02
RMM:   5    -0.649646464633E+03   -0.13795E-04   -0.66399E-06 15350   0.272E-03    0.513E-03
RMM:   6    -0.649646490293E+03   -0.25660E-04   -0.20521E-06 14860   0.154E-03    0.234E-03
RMM:   7    -0.649646526504E+03   -0.36210E-04   -0.10413E-06 12768   0.935E-04    0.134E-03
RMM:   8    -0.649646559188E+03   -0.32684E-04   -0.93827E-07 13178   0.882E-04    0.894E-04
RMM:   9    -0.649646609430E+03   -0.50242E-04   -0.25900E-06 14332   0.108E-03    0.549E-04
RMM:  10    -0.649646628675E+03   -0.19246E-04   -0.71774E-07 12239   0.673E-04    0.267E-04
RMM:  11    -0.649646636992E+03   -0.83169E-05   -0.16260E-07 11005   0.523E-04
  43 F= -.65485966E+03 E0= -.65484870E+03  d E =-.513815E-02  mag=    -0.0000
       N       E                     dE             d eps       ncg     rms          rms(c)
DAV:   1    -0.649654640594E+03   -0.80119E-02   -0.21163E+00 20160   0.175E+00    0.406E-01
RMM:   2    -0.649650870041E+03    0.37706E-02   -0.41244E-02 20160   0.248E-01    0.228E-01
RMM:   3    -0.649648626098E+03    0.22439E-02   -0.50689E-03 20358   0.727E-02    0.547E-02
RMM:   4    -0.649648570793E+03    0.55305E-04   -0.27526E-04 20318   0.169E-02    0.222E-02
RMM:   5    -0.649648630529E+03   -0.59736E-04   -0.28283E-05 17758   0.537E-03    0.107E-02
RMM:   6    -0.649648725658E+03   -0.95129E-04   -0.80917E-06 15808   0.288E-03    0.475E-03
RMM:   7    -0.649648833868E+03   -0.10821E-03   -0.53718E-06 15901   0.186E-03    0.272E-03
RMM:   8    -0.649648914474E+03   -0.80606E-04   -0.27959E-06 14070   0.124E-03    0.178E-03
RMM:   9    -0.649649047859E+03   -0.13338E-03   -0.96999E-06 16266   0.187E-03    0.115E-03
RMM:  10    -0.649649095481E+03   -0.47623E-04   -0.19995E-06 12882   0.968E-04    0.635E-04
RMM:  11    -0.649649126184E+03   -0.30703E-04   -0.12287E-06 12632   0.847E-04    0.373E-04
RMM:  12    -0.649649135802E+03   -0.96177E-05   -0.13149E-07 10944   0.583E-04
  44 F= -.65486317E+03 E0= -.65485210E+03  d E =-.864662E-02  mag=    -0.0000
       N       E                     dE             d eps       ncg     rms          rms(c)
DAV:   1    -0.649654598589E+03   -0.54724E-02   -0.36399E-01 24000   0.724E-01    0.167E-01
RMM:   2    -0.649653925718E+03    0.67287E-03   -0.71559E-03 20160   0.103E-01    0.915E-02
RMM:   3    -0.649653617412E+03    0.30831E-03   -0.76905E-04 20396   0.285E-02    0.274E-02
RMM:   4    -0.649653599244E+03    0.18167E-04   -0.50292E-05 20214   0.721E-03    0.115E-02
RMM:   5    -0.649653600844E+03   -0.15991E-05   -0.51592E-06 15185   0.239E-03
  45 F= -.65486709E+03 E0= -.65485601E+03  d E =-.391684E-02  mag=    -0.0000
       N       E                     dE             d eps       ncg     rms          rms(c)
DAV:   1    -0.649669518580E+03   -0.15919E-01   -0.32764E+00 20160   0.217E+00    0.503E-01
RMM:   2    -0.649663495105E+03    0.60235E-02   -0.64665E-02 20160   0.311E-01    0.274E-01
RMM:   3    -0.649660808344E+03    0.26868E-02   -0.69411E-03 20396   0.855E-02    0.823E-02
RMM:   4    -0.649660745455E+03    0.62889E-04   -0.45302E-04 20282   0.216E-02    0.345E-02
RMM:   5    -0.649660801701E+03   -0.56246E-04   -0.51335E-05 19928   0.705E-03    0.163E-02
RMM:   6    -0.649660933988E+03   -0.13229E-03   -0.12741E-05 16308   0.350E-03    0.645E-03
RMM:   7    -0.649661077052E+03   -0.14306E-03   -0.74414E-06 16031   0.242E-03    0.342E-03
RMM:   8    -0.649661152189E+03   -0.75137E-04   -0.22723E-06 13911   0.124E-03    0.256E-03
RMM:   9    -0.649661330218E+03   -0.17803E-03   -0.12691E-05 16436   0.218E-03    0.157E-03
RMM:  10    -0.649661408259E+03   -0.78040E-04   -0.37908E-06 13672   0.125E-03    0.871E-04
RMM:  11    -0.649661463290E+03   -0.55031E-04   -0.31660E-06 14620   0.116E-03    0.463E-04
RMM:  12    -0.649661473543E+03   -0.10253E-04   -0.21976E-07 11231   0.521E-04    0.291E-04
RMM:  13    -0.649661489123E+03   -0.15580E-04   -0.47060E-07 12195   0.660E-04    0.113E-04
RMM:  14    -0.649661491276E+03   -0.21529E-05   -0.20780E-08 10310   0.446E-04
  46 F= -.65487329E+03 E0= -.65486223E+03  d E =-.101189E-01  mag=    -0.0000
       N       E                     dE             d eps       ncg     rms          rms(c)
DAV:   1    -0.649667716128E+03   -0.62270E-02   -0.54448E-01 25200   0.885E-01    0.193E-01
RMM:   2    -0.649667064760E+03    0.65137E-03   -0.10120E-02 20160   0.123E-01    0.107E-01
RMM:   3    -0.649666742666E+03    0.32209E-03   -0.93441E-04 20450   0.322E-02    0.341E-02
RMM:   4    -0.649666729605E+03    0.13061E-04   -0.64764E-05 20202   0.824E-03    0.140E-02
RMM:   5    -0.649666734819E+03   -0.52136E-05   -0.69965E-06 15320   0.278E-03
  47 F= -.65487779E+03 E0= -.65486668E+03  d E =-.449719E-02  mag=     0.0000
       N       E                     dE             d eps       ncg     rms          rms(c)
DAV:   1    -0.649684120070E+03   -0.17390E-01   -0.49028E+00 20160   0.265E+00    0.581E-01
RMM:   2    -0.649678274079E+03    0.58460E-02   -0.91557E-02 20160   0.371E-01    0.322E-01
RMM:   3    -0.649675435629E+03    0.28385E-02   -0.84589E-03 20448   0.969E-02    0.102E-01
RMM:   4    -0.649675394547E+03    0.41082E-04   -0.57637E-04 20240   0.246E-02    0.416E-02
RMM:   5    -0.649675476092E+03   -0.81545E-04   -0.68965E-05 20192   0.828E-03    0.177E-02
RMM:   6    -0.649675616803E+03   -0.14071E-03   -0.16769E-05 16746   0.399E-03    0.591E-03
RMM:   7    -0.649675731512E+03   -0.11471E-03   -0.48388E-06 15678   0.211E-03    0.335E-03
RMM:   8    -0.649675820204E+03   -0.88692E-04   -0.32926E-06 14994   0.139E-03    0.196E-03
RMM:   9    -0.649675940382E+03   -0.12018E-03   -0.54120E-06 15210   0.150E-03    0.140E-03
RMM:  10    -0.649676026787E+03   -0.86405E-04   -0.44570E-06 14544   0.132E-03    0.910E-04
RMM:  11    -0.649676078641E+03   -0.51854E-04   -0.24698E-06 13743   0.105E-03    0.421E-04
RMM:  12    -0.649676090074E+03   -0.11433E-04   -0.28156E-07 11329   0.575E-04    0.233E-04
RMM:  13    -0.649676100966E+03   -0.10892E-04   -0.32341E-07 11830   0.627E-04    0.101E-04
RMM:  14    -0.649676103220E+03   -0.22543E-05   -0.33813E-08 10322   0.481E-04
  48 F= -.65488484E+03 E0= -.65487366E+03  d E =-.115496E-01  mag=    -0.0000
       N       E                     dE             d eps       ncg     rms          rms(c)
DAV:   1    -0.649684553972E+03   -0.84530E-02   -0.12693E+00 20880   0.134E+00    0.294E-01
RMM:   2    -0.649683104608E+03    0.14494E-02   -0.23102E-02 20160   0.187E-01    0.162E-01
RMM:   3    -0.649682437044E+03    0.66756E-03   -0.21696E-03 20500   0.491E-02    0.479E-02
RMM:   4    -0.649682436262E+03    0.78188E-06   -0.11431E-04 20203   0.111E-02    0.194E-02
RMM:   5    -0.649682450569E+03   -0.14307E-04   -0.13170E-05 16069   0.389E-03    0.821E-03
RMM:   6    -0.649682478306E+03   -0.27737E-04   -0.38948E-06 15008   0.219E-03    0.268E-03
RMM:   7    -0.649682501545E+03   -0.23238E-04   -0.73278E-07 13361   0.105E-03    0.153E-03
RMM:   8    -0.649682522346E+03   -0.20802E-04   -0.47316E-07 12864   0.805E-04    0.820E-04
RMM:   9    -0.649682543453E+03   -0.21107E-04   -0.50474E-07 12455   0.696E-04    0.576E-04
RMM:  10    -0.649682575850E+03   -0.32397E-04   -0.11785E-06 12708   0.816E-04    0.362E-04
RMM:  11    -0.649682588944E+03   -0.13094E-04   -0.44159E-07 11845   0.644E-04    0.169E-04
RMM:  12    -0.649682593417E+03   -0.44730E-05   -0.89135E-08 10679   0.542E-04
  49 F= -.65489045E+03 E0= -.65487928E+03  d E =-.561099E-02  mag=    -0.0000
       N       E                     dE             d eps       ncg     rms          rms(c)
DAV:   1    -0.649704830614E+03   -0.22242E-01   -0.88937E+00 20160   0.356E+00    0.783E-01
RMM:   2    -0.649694755680E+03    0.10075E-01   -0.16289E-01 20160   0.497E-01    0.429E-01
RMM:   3    -0.649690185488E+03    0.45702E-02   -0.15231E-02 20498   0.130E-01    0.127E-01
RMM:   4    -0.649690209878E+03   -0.24389E-04   -0.79688E-04 20228   0.295E-02    0.504E-02
RMM:   5    -0.649690291142E+03   -0.81264E-04   -0.10029E-04 20362   0.102E-02    0.213E-02
RMM:   6    -0.649690436752E+03   -0.14561E-03   -0.22263E-05 17426   0.456E-03    0.685E-03
RMM:   7    -0.649690543901E+03   -0.10715E-03   -0.46838E-06 15600   0.222E-03    0.372E-03
RMM:   8    -0.649690620188E+03   -0.76287E-04   -0.27061E-06 15260   0.138E-03    0.218E-03
RMM:   9    -0.649690712173E+03   -0.91985E-04   -0.27540E-06 13820   0.117E-03    0.145E-03
RMM:  10    -0.649690827942E+03   -0.11577E-03   -0.64933E-06 15844   0.161E-03    0.990E-04
RMM:  11    -0.649690888861E+03   -0.60919E-04   -0.28111E-06 13266   0.105E-03    0.447E-04
RMM:  12    -0.649690905411E+03   -0.16551E-04   -0.55898E-07 11750   0.674E-04    0.265E-04
RMM:  13    -0.649690914199E+03   -0.87877E-05   -0.19047E-07 11215   0.596E-04
  50 F= -.65489629E+03 E0= -.65488517E+03  d E =-.114495E-01  mag=    -0.0000
       N       E                     dE             d eps       ncg     rms          rms(c)
DAV:   1    -0.649695621588E+03   -0.47162E-02   -0.51422E-01 26160   0.853E-01    0.185E-01
RMM:   2    -0.649695048926E+03    0.57266E-03   -0.92330E-03 20160   0.118E-01    0.102E-01
RMM:   3    -0.649694774145E+03    0.27478E-03   -0.86939E-04 20481   0.310E-02    0.288E-02
RMM:   4    -0.649694775846E+03   -0.17002E-05   -0.41928E-05 19635   0.687E-03
  51 F= -.65489906E+03 E0= -.65488796E+03  d E =-.276567E-02  mag=    -0.0000
       N       E                     dE             d eps       ncg     rms          rms(c)
DAV:   1    -0.649711631776E+03   -0.16858E-01   -0.46312E+00 20160   0.256E+00    0.558E-01
RMM:   2    -0.649706586697E+03    0.50451E-02   -0.83607E-02 20160   0.356E-01    0.309E-01
RMM:   3    -0.649704198275E+03    0.23884E-02   -0.78482E-03 20488   0.934E-02    0.875E-02
RMM:   4    -0.649704268283E+03   -0.70008E-04   -0.38635E-04 20236   0.207E-02    0.324E-02
RMM:   5    -0.649704358005E+03   -0.89721E-04   -0.45740E-05 19457   0.703E-03    0.142E-02
RMM:   6    -0.649704479901E+03   -0.12190E-03   -0.13017E-05 16349   0.361E-03    0.470E-03
RMM:   7    -0.649704574225E+03   -0.94325E-04   -0.36670E-06 15516   0.184E-03    0.252E-03
RMM:   8    -0.649704645566E+03   -0.71340E-04   -0.22394E-06 13863   0.119E-03    0.156E-03
RMM:   9    -0.649704764364E+03   -0.11880E-03   -0.60552E-06 15707   0.161E-03    0.110E-03
RMM:  10    -0.649704817947E+03   -0.53583E-04   -0.22145E-06 13224   0.993E-04    0.686E-04
RMM:  11    -0.649704852036E+03   -0.34089E-04   -0.15269E-06 13064   0.898E-04    0.362E-04
RMM:  12    -0.649704858944E+03   -0.69075E-05   -0.12133E-07 10953   0.551E-04
  52 F= -.65490577E+03 E0= -.65489478E+03  d E =-.947598E-02  mag=    -0.0000
       N       E                     dE             d eps       ncg     rms          rms(c)
DAV:   1    -0.649744843356E+03   -0.39991E-01   -0.18519E+01 20160   0.512E+00    0.112E+00
RMM:   2    -0.649724699726E+03    0.20144E-01   -0.33725E-01 20160   0.715E-01    0.613E-01
RMM:   3    -0.649715388733E+03    0.93110E-02   -0.31238E-02 20488   0.186E-01    0.176E-01
RMM:   4    -0.649715534479E+03   -0.14575E-03   -0.15506E-03 20236   0.417E-02    0.637E-02
RMM:   5    -0.649715712597E+03   -0.17812E-03   -0.18242E-04 20490   0.139E-02    0.275E-02
RMM:   6    -0.649715965944E+03   -0.25335E-03   -0.42972E-05 18888   0.617E-03    0.932E-03
RMM:   7    -0.649716167576E+03   -0.20163E-03   -0.10026E-05 16293   0.288E-03    0.517E-03
RMM:   8    -0.649716313301E+03   -0.14572E-03   -0.61704E-06 15958   0.197E-03    0.303E-03
RMM:   9    -0.649716515091E+03   -0.20179E-03   -0.10653E-05 16247   0.207E-03    0.196E-03
RMM:  10    -0.649716674171E+03   -0.15908E-03   -0.11210E-05 16200   0.196E-03    0.126E-03
RMM:  11    -0.649716751853E+03   -0.77682E-04   -0.43216E-06 13817   0.125E-03    0.640E-04
RMM:  12    -0.649716773912E+03   -0.22059E-04   -0.66570E-07 12030   0.720E-04    0.326E-04
RMM:  13    -0.649716789386E+03   -0.15474E-04   -0.38286E-07 11811   0.683E-04    0.137E-04
RMM:  14    -0.649716793879E+03   -0.44930E-05   -0.93357E-08 10938   0.576E-04
  53 F= -.65491058E+03 E0= -.65489982E+03  d E =-.142878E-01  mag=    -0.0000
       N       E                     dE             d eps       ncg     rms          rms(c)
DAV:   1    -0.649730756345E+03   -0.13967E-01   -0.18350E+00 23760   0.162E+00    0.362E-01
RMM:   2    -0.649728388149E+03    0.23682E-02   -0.34862E-02 20160   0.230E-01    0.200E-01
RMM:   3    -0.649727134715E+03    0.12534E-02   -0.35427E-03 20478   0.622E-02    0.539E-02
RMM:   4    -0.649727130840E+03    0.38751E-05   -0.17019E-04 20242   0.136E-02    0.198E-02
RMM:   5    -0.649727166496E+03   -0.35656E-04   -0.18876E-05 16714   0.462E-03    0.830E-03
RMM:   6    -0.649727213960E+03   -0.47464E-04   -0.43415E-06 15192   0.232E-03    0.315E-03
RMM:   7    -0.649727261740E+03   -0.47780E-04   -0.16758E-06 14709   0.127E-03    0.167E-03
RMM:   8    -0.649727294171E+03   -0.32431E-04   -0.72709E-07 12807   0.826E-04    0.111E-03
RMM:   9    -0.649727359444E+03   -0.65273E-04   -0.28675E-06 14469   0.118E-03    0.730E-04
RMM:  10    -0.649727389523E+03   -0.30079E-04   -0.11831E-06 12906   0.793E-04    0.409E-04
RMM:  11    -0.649727408085E+03   -0.18563E-04   -0.64721E-07 12206   0.685E-04    0.214E-04
RMM:  12    -0.649727412340E+03   -0.42544E-05   -0.78293E-08 10714   0.510E-04
  54 F= -.65491763E+03 E0= -.65490690E+03  d E =-.705137E-02  mag=    -0.0000
       N       E                     dE             d eps       ncg     rms          rms(c)
DAV:   1    -0.649739649701E+03   -0.12242E-01   -0.26428E+00 20160   0.194E+00    0.434E-01
RMM:   2    -0.649736253947E+03    0.33958E-02   -0.50219E-02 20160   0.276E-01    0.240E-01
RMM:   3    -0.649734468855E+03    0.17851E-02   -0.50911E-03 20482   0.746E-02    0.648E-02
RMM:   4    -0.649734471821E+03   -0.29661E-05   -0.24427E-04 20240   0.164E-02    0.238E-02
RMM:   5    -0.649734522694E+03   -0.50873E-04   -0.27925E-05 17922   0.554E-03    0.101E-02
RMM:   6    -0.649734586724E+03   -0.64030E-04   -0.59051E-06 15390   0.266E-03    0.379E-03
RMM:   7    -0.649734646510E+03   -0.59786E-04   -0.23012E-06 15186   0.146E-03    0.206E-03
RMM:   8    -0.649734688178E+03   -0.41668E-04   -0.97417E-07 12839   0.907E-04    0.134E-03
RMM:   9    -0.649734775249E+03   -0.87072E-04   -0.43291E-06 15400   0.142E-03    0.900E-04
RMM:  10    -0.649734814099E+03   -0.38850E-04   -0.16004E-06 13034   0.857E-04    0.481E-04
RMM:  11    -0.649734838267E+03   -0.24168E-04   -0.95793E-07 12372   0.755E-04    0.260E-04
RMM:  12    -0.649734843188E+03   -0.49208E-05   -0.77492E-08 10748   0.532E-04
  55 F= -.65492073E+03 E0= -.65491004E+03  d E =-.101496E-01  mag=     0.0000
       N       E                     dE             d eps       ncg     rms          rms(c)
DAV:   1    -0.649744808981E+03   -0.99707E-02   -0.95372E-01 25920   0.118E+00    0.264E-01
RMM:   2    -0.649743381609E+03    0.14274E-02   -0.18217E-02 20160   0.165E-01    0.147E-01
RMM:   3    -0.649742599955E+03    0.78165E-03   -0.19400E-03 20410   0.456E-02    0.399E-02
RMM:   4    -0.649742578556E+03    0.21399E-04   -0.10923E-04 20268   0.108E-02    0.147E-02
RMM:   5    -0.649742604012E+03   -0.25456E-04   -0.10080E-05 15668   0.341E-03    0.659E-03
RMM:   6    -0.649742641183E+03   -0.37171E-04   -0.30097E-06 15002   0.191E-03    0.265E-03
RMM:   7    -0.649742678941E+03   -0.37758E-04   -0.11705E-06 13433   0.108E-03    0.152E-03
RMM:   8    -0.649742707317E+03   -0.28376E-04   -0.68267E-07 13203   0.842E-04    0.102E-03
RMM:   9    -0.649742761536E+03   -0.54219E-04   -0.24244E-06 13956   0.108E-03    0.666E-04
RMM:  10    -0.649742789754E+03   -0.28218E-04   -0.11676E-06 12888   0.804E-04    0.331E-04
RMM:  11    -0.649742803469E+03   -0.13715E-04   -0.47846E-07 12067   0.632E-04    0.183E-04
RMM:  12    -0.649742807303E+03   -0.38337E-05   -0.66674E-08 10579   0.484E-04
  56 F= -.65492712E+03 E0= -.65491645E+03  d E =-.639512E-02  mag=    -0.0000
       N       E                     dE             d eps       ncg     rms          rms(c)
DAV:   1    -0.649764479987E+03   -0.21677E-01   -0.54645E+00 20160   0.281E+00    0.633E-01
RMM:   2    -0.649756384777E+03    0.80952E-02   -0.10489E-01 20160   0.397E-01    0.351E-01
RMM:   3    -0.649752156174E+03    0.42286E-02   -0.11072E-02 20414   0.109E-01    0.965E-02
RMM:   4    -0.649752107641E+03    0.48532E-04   -0.63455E-04 20288   0.259E-02    0.354E-02
RMM:   5    -0.649752228144E+03   -0.12050E-03   -0.64288E-05 20192   0.808E-03    0.167E-02
RMM:   6    -0.649752374050E+03   -0.14591E-03   -0.14047E-05 16520   0.367E-03    0.695E-03
RMM:   7    -0.649752520080E+03   -0.14603E-03   -0.72668E-06 16020   0.238E-03    0.386E-03
RMM:   8    -0.649752614669E+03   -0.94589E-04   -0.32281E-06 15022   0.139E-03    0.254E-03
RMM:   9    -0.649752806186E+03   -0.19152E-03   -0.14014E-05 16494   0.228E-03    0.158E-03
RMM:  10    -0.649752896752E+03   -0.90566E-04   -0.55690E-06 14398   0.145E-03    0.797E-04
RMM:  11    -0.649752942707E+03   -0.45955E-04   -0.24721E-06 14178   0.105E-03    0.460E-04
RMM:  12    -0.649752955286E+03   -0.12580E-04   -0.30701E-07 11346   0.542E-04    0.261E-04
RMM:  13    -0.649752968593E+03   -0.13307E-04   -0.44535E-07 12086   0.633E-04    0.114E-04
RMM:  14    -0.649752971146E+03   -0.25534E-05   -0.29006E-08 10485   0.465E-04
  57 F= -.65493347E+03 E0= -.65492282E+03  d E =-.127445E-01  mag=    -0.0000
       N       E                     dE             d eps       ncg     rms          rms(c)
DAV:   1    -0.649761229832E+03   -0.82612E-02   -0.12831E+00 25200   0.137E+00    0.307E-01
RMM:   2    -0.649759380307E+03    0.18495E-02   -0.24224E-02 20160   0.191E-01    0.171E-01
RMM:   3    -0.649758318211E+03    0.10621E-02   -0.26174E-03 20404   0.530E-02    0.449E-02
RMM:   4    -0.649758298724E+03    0.19487E-04   -0.14503E-04 20296   0.124E-02    0.171E-02
RMM:   5    -0.649758333792E+03   -0.35068E-04   -0.14249E-05 16192   0.398E-03    0.779E-03
RMM:   6    -0.649758379871E+03   -0.46079E-04   -0.39076E-06 15132   0.216E-03    0.326E-03
RMM:   7    -0.649758429114E+03   -0.49243E-04   -0.17497E-06 14342   0.125E-03    0.190E-03
RMM:   8    -0.649758468629E+03   -0.39515E-04   -0.10574E-06 13472   0.926E-04    0.121E-03
RMM:   9    -0.649758536095E+03   -0.67466E-04   -0.31641E-06 14410   0.120E-03    0.771E-04
RMM:  10    -0.649758570343E+03   -0.34248E-04   -0.15055E-06 13281   0.863E-04    0.441E-04
RMM:  11    -0.649758590169E+03   -0.19826E-04   -0.73035E-07 12255   0.697E-04    0.217E-04
RMM:  12    -0.649758595004E+03   -0.48345E-05   -0.85600E-08 10763   0.510E-04
  58 F= -.65493951E+03 E0= -.65492895E+03  d E =-.603841E-02  mag=     0.0000
       N       E                     dE             d eps       ncg     rms          rms(c)
DAV:   1    -0.649769674176E+03   -0.11084E-01   -0.44097E+00 20160   0.254E+00    0.571E-01
RMM:   2    -0.649763292572E+03    0.63816E-02   -0.83578E-02 20160   0.355E-01    0.317E-01
RMM:   3    -0.649759774589E+03    0.35180E-02   -0.89888E-03 20402   0.983E-02    0.838E-02
RMM:   4    -0.649759743347E+03    0.31242E-04   -0.50508E-04 20296   0.232E-02    0.317E-02
RMM:   5    -0.649759854404E+03   -0.11106E-03   -0.54547E-05 19990   0.743E-03    0.145E-02
RMM:   6    -0.649759986667E+03   -0.13226E-03   -0.11696E-05 16258   0.337E-03    0.609E-03
RMM:   7    -0.649760117157E+03   -0.13049E-03   -0.62244E-06 15940   0.215E-03    0.348E-03
RMM:   8    -0.649760204571E+03   -0.87414E-04   -0.29797E-06 14638   0.133E-03    0.229E-03
RMM:   9    -0.649760368472E+03   -0.16390E-03   -0.11201E-05 16398   0.207E-03    0.142E-03
RMM:  10    -0.649760441631E+03   -0.73159E-04   -0.39980E-06 13856   0.126E-03    0.845E-04
RMM:  11    -0.649760489901E+03   -0.48270E-04   -0.27670E-06 14327   0.110E-03    0.438E-04
RMM:  12    -0.649760498640E+03   -0.87394E-05   -0.21975E-07 11174   0.522E-04
  59 F= -.65494214E+03 E0= -.65493174E+03  d E =-.866900E-02  mag=     0.0000
       N       E                     dE             d eps       ncg     rms          rms(c)
DAV:   1    -0.649761721004E+03   -0.12311E-02   -0.30465E-01 26400   0.668E-01    0.149E-01
RMM:   2    -0.649761297955E+03    0.42305E-03   -0.57227E-03 20160   0.930E-02    0.835E-02
RMM:   3    -0.649761059388E+03    0.23857E-03   -0.62153E-04 20404   0.258E-02    0.218E-02
RMM:   4    -0.649761047463E+03    0.11925E-04   -0.33092E-05 18644   0.603E-03    0.832E-03
RMM:   5    -0.649761047221E+03    0.24169E-06   -0.38919E-06 14992   0.220E-03
  60 F= -.65494251E+03 E0= -.65493207E+03  d E =-.903423E-02  mag=     0.0000
       N       E                     dE             d eps       ncg     rms          rms(c)
DAV:   1    -0.649770802229E+03   -0.97548E-02   -0.11759E+00 24480   0.131E+00    0.308E-01
RMM:   2    -0.649768596581E+03    0.22056E-02   -0.22530E-02 20160   0.184E-01    0.172E-01
RMM:   3    -0.649767280438E+03    0.13161E-02   -0.28499E-03 20360   0.544E-02    0.415E-02
RMM:   4    -0.649767220568E+03    0.59869E-04   -0.15567E-04 20310   0.126E-02    0.168E-02
RMM:   5    -0.649767238539E+03   -0.17971E-04   -0.13931E-05 16154   0.393E-03    0.811E-03
RMM:   6    -0.649767277582E+03   -0.39043E-04   -0.40624E-06 15136   0.220E-03    0.335E-03
RMM:   7    -0.649767322212E+03   -0.44630E-04   -0.17771E-06 14452   0.125E-03    0.196E-03
RMM:   8    -0.649767360292E+03   -0.38080E-04   -0.10440E-06 13280   0.913E-04    0.131E-03
RMM:   9    -0.649767435096E+03   -0.74804E-04   -0.44929E-06 15157   0.137E-03    0.837E-04
RMM:  10    -0.649767469488E+03   -0.34392E-04   -0.15394E-06 13111   0.867E-04    0.369E-04
RMM:  11    -0.649767485233E+03   -0.15744E-04   -0.54581E-07 11779   0.648E-04    0.235E-04
RMM:  12    -0.649767492062E+03   -0.68297E-05   -0.14256E-07 11032   0.552E-04
  61 F= -.65494807E+03 E0= -.65493761E+03  d E =-.556175E-02  mag=    -0.0000
       N       E                     dE             d eps       ncg     rms          rms(c)
DAV:   1    -0.649779730110E+03   -0.12245E-01   -0.27295E+00 20160   0.199E+00    0.470E-01
RMM:   2    -0.649774318099E+03    0.54120E-02   -0.52539E-02 20160   0.281E-01    0.262E-01
RMM:   3    -0.649771225350E+03    0.30927E-02   -0.65929E-03 20362   0.828E-02    0.638E-02
RMM:   4    -0.649771179642E+03    0.45708E-04   -0.36843E-04 20308   0.194E-02    0.258E-02
RMM:   5    -0.649771271965E+03   -0.92323E-04   -0.36896E-05 19077   0.608E-03    0.126E-02
RMM:   6    -0.649771405484E+03   -0.13352E-03   -0.10755E-05 16150   0.323E-03    0.532E-03
RMM:   7    -0.649771521899E+03   -0.11642E-03   -0.55128E-06 15852   0.199E-03    0.330E-03
RMM:   8    -0.649771608943E+03   -0.87044E-04   -0.30099E-06 14382   0.130E-03    0.228E-03
RMM:   9    -0.649771787532E+03   -0.17859E-03   -0.14934E-05 16546   0.235E-03    0.140E-03
RMM:  10    -0.649771852600E+03   -0.65068E-04   -0.36940E-06 13858   0.125E-03    0.606E-04
RMM:  11    -0.649771883342E+03   -0.30742E-04   -0.15203E-06 13169   0.896E-04    0.397E-04
RMM:  12    -0.649771894708E+03   -0.11365E-04   -0.22308E-07 11267   0.575E-04    0.214E-04
RMM:  13    -0.649771905292E+03   -0.10584E-04   -0.42145E-07 12132   0.663E-04    0.979E-05
RMM:  14    -0.649771907042E+03   -0.17498E-05   -0.26440E-08 10457   0.489E-04
  62 F= -.65495111E+03 E0= -.65494059E+03  d E =-.860322E-02  mag=    -0.0000
       N       E                     dE             d eps       ncg     rms          rms(c)
DAV:   1    -0.649782590659E+03   -0.10685E-01   -0.12042E+00 22560   0.132E+00    0.327E-01
RMM:   2    -0.649779573869E+03    0.30168E-02   -0.23204E-02 20160   0.186E-01    0.183E-01
RMM:   3    -0.649777777968E+03    0.17959E-02   -0.32991E-03 20332   0.579E-02    0.428E-02
RMM:   4    -0.649777733011E+03    0.44958E-04   -0.18577E-04 20318   0.136E-02    0.192E-02
RMM:   5    -0.649777781594E+03   -0.48583E-04   -0.18153E-05 16630   0.436E-03    0.981E-03
RMM:   6    -0.649777869979E+03   -0.88385E-04   -0.80219E-06 15810   0.283E-03    0.387E-03
RMM:   7    -0.649777944021E+03   -0.74041E-04   -0.31022E-06 15151   0.149E-03    0.258E-03
RMM:   8    -0.649778012881E+03   -0.68860E-04   -0.24188E-06 14074   0.118E-03    0.170E-03
RMM:   9    -0.649778133757E+03   -0.12088E-03   -0.87921E-06 16035   0.184E-03    0.105E-03
RMM:  10    -0.649778176556E+03   -0.42800E-04   -0.20105E-06 13189   0.974E-04    0.527E-04
RMM:  11    -0.649778200857E+03   -0.24300E-04   -0.10581E-06 12500   0.785E-04    0.304E-04
RMM:  12    -0.649778209090E+03   -0.82333E-05   -0.12302E-07 10966   0.559E-04
  63 F= -.65495599E+03 E0= -.65494545E+03  d E =-.488392E-02  mag=    -0.0000
       N       E                     dE             d eps       ncg     rms          rms(c)
DAV:   1    -0.649789138314E+03   -0.10937E-01   -0.19171E+00 20640   0.166E+00    0.413E-01
RMM:   2    -0.649784341152E+03    0.47972E-02   -0.37019E-02 20160   0.235E-01    0.231E-01
RMM:   3    -0.649781541553E+03    0.27996E-02   -0.52485E-03 20332   0.730E-02    0.540E-02
RMM:   4    -0.649781480735E+03    0.60818E-04   -0.29574E-04 20324   0.171E-02    0.243E-02
RMM:   5    -0.649781556026E+03   -0.75291E-04   -0.30109E-05 18280   0.549E-03    0.124E-02
RMM:   6    -0.649781691272E+03   -0.13525E-03   -0.12673E-05 16319   0.345E-03    0.486E-03
RMM:   7    -0.649781799176E+03   -0.10790E-03   -0.50504E-06 15770   0.188E-03    0.325E-03
RMM:   8    -0.649781891317E+03   -0.92141E-04   -0.36839E-06 15021   0.139E-03    0.217E-03
RMM:   9    -0.649782058991E+03   -0.16767E-03   -0.13813E-05 16508   0.223E-03    0.132E-03
RMM:  10    -0.649782114792E+03   -0.55801E-04   -0.30329E-06 13574   0.115E-03    0.676E-04
RMM:  11    -0.649782148482E+03   -0.33690E-04   -0.16405E-06 13109   0.927E-04    0.387E-04
RMM:  12    -0.649782158368E+03   -0.98858E-05   -0.19488E-07 11204   0.580E-04
  64 F= -.65495814E+03 E0= -.65494755E+03  d E =-.702926E-02  mag=     0.0000
       N       E                     dE             d eps       ncg     rms          rms(c)
DAV:   1    -0.649787396488E+03   -0.52480E-02   -0.54162E-01 25920   0.884E-01    0.217E-01
RMM:   2    -0.649786100966E+03    0.12955E-02   -0.10247E-02 20160   0.124E-01    0.121E-01
RMM:   3    -0.649785333764E+03    0.76720E-03   -0.13761E-03 20340   0.376E-02    0.299E-02
RMM:   4    -0.649785296813E+03    0.36951E-04   -0.88214E-05 20304   0.934E-03    0.132E-02
RMM:   5    -0.649785316574E+03   -0.19761E-04   -0.79208E-06 15416   0.296E-03    0.669E-03
RMM:   6    -0.649785354245E+03   -0.37672E-04   -0.33992E-06 15046   0.191E-03    0.286E-03
RMM:   7    -0.649785392487E+03   -0.38241E-04   -0.13007E-06 13338   0.106E-03    0.187E-03
RMM:   8    -0.649785437197E+03   -0.44710E-04   -0.15316E-06 14256   0.102E-03    0.109E-03
RMM:   9    -0.649785500404E+03   -0.63207E-04   -0.35077E-06 14466   0.118E-03    0.677E-04
RMM:  10    -0.649785525040E+03   -0.24636E-04   -0.10719E-06 12917   0.785E-04    0.346E-04
RMM:  11    -0.649785536854E+03   -0.11814E-04   -0.36745E-07 11635   0.582E-04    0.199E-04
RMM:  12    -0.649785542739E+03   -0.58850E-05   -0.15160E-07 11060   0.523E-04
  65 F= -.65496191E+03 E0= -.65495131E+03  d E =-.376944E-02  mag=     0.0000
       N       E                     dE             d eps       ncg     rms          rms(c)
DAV:   1    -0.649807645818E+03   -0.22109E-01   -0.48801E+00 20160   0.265E+00    0.654E-01
RMM:   2    -0.649796062597E+03    0.11583E-01   -0.93091E-02 20160   0.374E-01    0.363E-01
RMM:   3    -0.649789661067E+03    0.64015E-02   -0.12344E-02 20340   0.113E-01    0.906E-02
RMM:   4    -0.649789495444E+03    0.16562E-03   -0.80713E-04 20334   0.282E-02    0.398E-02
RMM:   5    -0.649789669662E+03   -0.17422E-03   -0.84883E-05 20334   0.901E-03    0.200E-02
RMM:   6    -0.649789928772E+03   -0.25911E-03   -0.29579E-05 17456   0.494E-03    0.809E-03
RMM:   7    -0.649790131691E+03   -0.20292E-03   -0.11570E-05 16410   0.279E-03    0.550E-03
RMM:   8    -0.649790330704E+03   -0.19901E-03   -0.10825E-05 16448   0.227E-03    0.335E-03
RMM:   9    -0.649790629779E+03   -0.29907E-03   -0.30713E-05 17056   0.327E-03    0.200E-03
RMM:  10    -0.649790731275E+03   -0.10150E-03   -0.78940E-06 15428   0.173E-03    0.105E-03
RMM:  11    -0.649790781323E+03   -0.50048E-04   -0.24866E-06 13598   0.104E-03    0.620E-04
RMM:  12    -0.649790802846E+03   -0.21522E-04   -0.64670E-07 12045   0.664E-04    0.313E-04
RMM:  13    -0.649790817613E+03   -0.14768E-04   -0.48956E-07 12231   0.663E-04    0.146E-04
RMM:  14    -0.649790820557E+03   -0.29437E-05   -0.62306E-08 10818   0.504E-04
  66 F= -.65496831E+03 E0= -.65495766E+03  d E =-.101751E-01  mag=     0.0000
       N       E                     dE             d eps       ncg     rms          rms(c)
DAV:   1    -0.649793187942E+03   -0.23703E-02   -0.66594E-01 24960   0.980E-01    0.241E-01
RMM:   2    -0.649791590590E+03    0.15974E-02   -0.12628E-02 20160   0.138E-01    0.134E-01
RMM:   3    -0.649790645605E+03    0.94499E-03   -0.16949E-03 20338   0.418E-02    0.331E-02
RMM:   4    -0.649790603826E+03    0.41778E-04   -0.10851E-04 20308   0.104E-02    0.146E-02
RMM:   5    -0.649790629108E+03   -0.25282E-04   -0.98299E-06 15614   0.329E-03    0.733E-03
RMM:   6    -0.649790677176E+03   -0.48068E-04   -0.44651E-06 15178   0.217E-03    0.301E-03
RMM:   7    -0.649790720993E+03   -0.43817E-04   -0.15677E-06 13691   0.114E-03    0.204E-03
RMM:   8    -0.649790771925E+03   -0.50932E-04   -0.18053E-06 14543   0.109E-03    0.120E-03
RMM:   9    -0.649790843696E+03   -0.71771E-04   -0.42264E-06 14744   0.127E-03    0.727E-04
RMM:  10    -0.649790872073E+03   -0.28377E-04   -0.12538E-06 13057   0.836E-04    0.371E-04
RMM:  11    -0.649790885146E+03   -0.13073E-04   -0.42731E-07 11729   0.604E-04    0.218E-04
RMM:  12    -0.649790891768E+03   -0.66219E-05   -0.17633E-07 11217   0.539E-04
  67 F= -.65496879E+03 E0= -.65495810E+03  d E =-.106485E-01  mag=    -0.0000
       N       E                     dE             d eps       ncg     rms          rms(c)
DAV:   1    -0.649801200327E+03   -0.10315E-01   -0.14600E+00 20640   0.145E+00    0.362E-01
RMM:   2    -0.649797292839E+03    0.39075E-02   -0.27735E-02 20160   0.204E-01    0.199E-01
RMM:   3    -0.649795218580E+03    0.20743E-02   -0.39407E-03 20326   0.631E-02    0.478E-02
RMM:   4    -0.649795167240E+03    0.51340E-04   -0.23156E-04 20328   0.152E-02    0.201E-02
RMM:   5    -0.649795229234E+03   -0.61994E-04   -0.21904E-05 17070   0.474E-03    0.103E-02
RMM:   6    -0.649795338710E+03   -0.10948E-03   -0.90207E-06 15986   0.296E-03    0.393E-03
RMM:   7    -0.649795430898E+03   -0.92188E-04   -0.41048E-06 15556   0.167E-03    0.242E-03
RMM:   8    -0.649795548619E+03   -0.11772E-03   -0.64080E-06 15676   0.166E-03    0.156E-03
RMM:   9    -0.649795630598E+03   -0.81979E-04   -0.48952E-06 14750   0.141E-03    0.106E-03
RMM:  10    -0.649795674130E+03   -0.43532E-04   -0.20891E-06 13817   0.992E-04    0.539E-04
RMM:  11    -0.649795698224E+03   -0.24094E-04   -0.95581E-07 12583   0.732E-04    0.313E-04
RMM:  12    -0.649795706205E+03   -0.79811E-05   -0.12121E-07 11006   0.510E-04
[...]
RMM:  12    -0.649885167012E+03   -0.69024E-04   -0.52482E-06 15536   0.170E-03    0.196E-03
RMM:  13    -0.649885213765E+03   -0.46753E-04   -0.57768E-06 15089   0.160E-03    0.983E-04
RMM:  14    -0.649885221045E+03   -0.72793E-05   -0.13294E-06 13219   0.838E-04
  79 F= -.65507327E+03 E0= -.65505850E+03  d E =-.344827E-01  mag=     0.0000
       N       E                     dE             d eps       ncg     rms          rms(c)
DAV:   1    -0.650271628208E+03   -0.38641E+00   -0.85673E+01 20160   0.111E+01    0.280E+00
RMM:   2    -0.650040250945E+03    0.23138E+00   -0.16703E+00 20206   0.160E+00    0.157E+00
RMM:   3    -0.649921959736E+03    0.11829E+00   -0.22471E-01 20372   0.477E-01    0.401E-01
RMM:   4    -0.649915914206E+03    0.60455E-02   -0.16384E-02 20350   0.124E-01    0.171E-01
RMM:   5    -0.649914979798E+03    0.93441E-03   -0.13911E-03 20400   0.363E-02    0.932E-02
RMM:   6    -0.649914987586E+03   -0.77884E-05   -0.56030E-04 20218   0.227E-02    0.334E-02
RMM:   7    -0.649915430859E+03   -0.44327E-03   -0.63026E-05 19982   0.749E-03    0.206E-02
RMM:   8    -0.649915956362E+03   -0.52550E-03   -0.36808E-05 17560   0.498E-03    0.135E-02
RMM:   9    -0.649916800334E+03   -0.84397E-03   -0.95518E-05 18856   0.677E-03    0.874E-03
RMM:  10    -0.649917177900E+03   -0.37757E-03   -0.33271E-05 17436   0.387E-03    0.437E-03
RMM:  11    -0.649917426213E+03   -0.24831E-03   -0.15745E-05 16750   0.265E-03    0.227E-03
RMM:  12    -0.649917522700E+03   -0.96486E-04   -0.15281E-06 13710   0.117E-03    0.117E-03
RMM:  13    -0.649917583214E+03   -0.60514E-04   -0.18520E-06 14788   0.105E-03    0.644E-04
RMM:  14    -0.649917598197E+03   -0.14983E-04   -0.37359E-07 11692   0.529E-04    0.427E-04
RMM:  15    -0.649917608437E+03   -0.10240E-04   -0.66137E-07 12564   0.644E-04    0.274E-04
RMM:  16    -0.649917619848E+03   -0.11411E-04   -0.36359E-08 10580   0.436E-04    0.204E-04
RMM:  17    -0.649917632261E+03   -0.12413E-04   -0.16024E-07 10918   0.506E-04    0.114E-04
RMM:  18    -0.649917637447E+03   -0.51862E-05   -0.78786E-08 10602   0.474E-04
  80 F= -.65510487E+03 E0= -.65509172E+03  d E =-.660845E-01  mag=    -0.0000
       N       E                     dE             d eps       ncg     rms          rms(c)
DAV:   1    -0.649947601080E+03   -0.29969E-01   -0.66706E+00 21120   0.308E+00    0.808E-01
RMM:   2    -0.649926874359E+03    0.20727E-01   -0.13251E-01 20206   0.445E-01    0.429E-01
RMM:   3    -0.649917524722E+03    0.93496E-02   -0.17027E-02 20364   0.132E-01    0.116E-01
RMM:   4    -0.649917193838E+03    0.33088E-03   -0.12355E-03 20368   0.343E-02    0.520E-02
RMM:   5    -0.649917417483E+03   -0.22364E-03   -0.13633E-04 20320   0.112E-02    0.254E-02
RMM:   6    -0.649917825696E+03   -0.40821E-03   -0.52929E-05 19270   0.659E-03    0.887E-03
RMM:   7    -0.649918117983E+03   -0.29229E-03   -0.18509E-05 16828   0.345E-03    0.565E-03
RMM:   8    -0.649918348373E+03   -0.23039E-03   -0.12996E-05 16576   0.256E-03    0.372E-03
RMM:   9    -0.649918645689E+03   -0.29732E-03   -0.28331E-05 17092   0.328E-03    0.235E-03
RMM:  10    -0.649918756282E+03   -0.11059E-03   -0.87896E-06 15954   0.188E-03    0.135E-03
RMM:  11    -0.649918825518E+03   -0.69236E-04   -0.54602E-06 14256   0.142E-03    0.648E-04
RMM:  12    -0.649918840007E+03   -0.14490E-04   -0.72694E-07 12254   0.732E-04    0.347E-04
RMM:  13    -0.649918849395E+03   -0.93881E-05   -0.65454E-07 12554   0.733E-04
  81 F= -.65510636E+03 E0= -.65509285E+03  d E =-.675786E-01  mag=    -0.0000
       N       E                     dE             d eps       ncg     rms          rms(c)
DAV:   1    -0.649948566563E+03   -0.29727E-01   -0.15404E+00 26400   0.149E+00    0.379E-01
RMM:   2    -0.649944570256E+03    0.39963E-02   -0.29940E-02 20206   0.213E-01    0.200E-01
RMM:   3    -0.649942806057E+03    0.17642E-02   -0.33253E-03 20402   0.588E-02    0.595E-02
RMM:   4    -0.649942702042E+03    0.10401E-03   -0.27135E-04 20344   0.161E-02    0.249E-02
RMM:   5    -0.649942737628E+03   -0.35586E-04   -0.27638E-05 18428   0.522E-03    0.120E-02
RMM:   6    -0.649942795586E+03   -0.57958E-04   -0.57241E-06 15324   0.254E-03    0.584E-03
RMM:   7    -0.649942865927E+03   -0.70341E-04   -0.32722E-06 15382   0.172E-03    0.277E-03
RMM:   8    -0.649942926220E+03   -0.60292E-04   -0.19218E-06 14174   0.112E-03    0.167E-03
RMM:   9    -0.649943012141E+03   -0.85921E-04   -0.45883E-06 15396   0.146E-03    0.100E-03
RMM:  10    -0.649943057906E+03   -0.45765E-04   -0.25143E-06 13796   0.105E-03    0.596E-04
RMM:  11    -0.649943081924E+03   -0.24018E-04   -0.13952E-06 12934   0.842E-04    0.270E-04
RMM:  12    -0.649943086655E+03   -0.47304E-05   -0.16347E-07 11252   0.560E-04
  82 F= -.65513146E+03 E0= -.65511773E+03  d E =-.250926E-01  mag=    -0.0000
       N       E                     dE             d eps       ncg     rms          rms(c)
DAV:   1    -0.650038221959E+03   -0.95140E-01   -0.13917E+01 20160   0.449E+00    0.116E+00
RMM:   2    -0.650000492196E+03    0.37730E-01   -0.27428E-01 20216   0.645E-01    0.603E-01
RMM:   3    -0.649985378569E+03    0.15114E-01   -0.29910E-02 20402   0.177E-01    0.183E-01
RMM:   4    -0.649984654409E+03    0.72416E-03   -0.25090E-03 20364   0.489E-02    0.781E-02
RMM:   5    -0.649984950050E+03   -0.29564E-03   -0.27904E-04 20390   0.162E-02    0.369E-02
RMM:   6    -0.649985319890E+03   -0.36984E-03   -0.52248E-05 19634   0.681E-03    0.185E-02
RMM:   7    -0.649985741310E+03   -0.42142E-03   -0.31916E-05 17437   0.493E-03    0.837E-03
RMM:   8    -0.649986050582E+03   -0.30927E-03   -0.18115E-05 16832   0.332E-03    0.521E-03
RMM:   9    -0.649986467632E+03   -0.41705E-03   -0.38914E-05 17366   0.401E-03    0.296E-03
RMM:  10    -0.649986684615E+03   -0.21698E-03   -0.22085E-05 16956   0.292E-03    0.190E-03
RMM:  11    -0.649986792087E+03   -0.10747E-03   -0.10768E-05 15734   0.195E-03    0.836E-04
RMM:  12    -0.649986810082E+03   -0.17996E-04   -0.11466E-06 12878   0.827E-04    0.464E-04
RMM:  13    -0.649986822773E+03   -0.12690E-04   -0.93498E-07 12758   0.762E-04    0.237E-04
RMM:  14    -0.649986825938E+03   -0.31650E-05   -0.14087E-07 11168   0.529E-04
  83 F= -.65517780E+03 E0= -.65516337E+03  d E =-.714348E-01  mag=     0.0000
       N       E                     dE             d eps       ncg     rms          rms(c)
DAV:   1    -0.650148002026E+03   -0.16118E+00   -0.56184E+01 20160   0.901E+00    0.241E+00
RMM:   2    -0.649984981511E+03    0.16302E+00   -0.11470E+00 20222   0.132E+00    0.123E+00
RMM:   3    -0.649924540521E+03    0.60441E-01   -0.12134E-01 20408   0.356E-01    0.387E-01
RMM:   4    -0.649921402820E+03    0.31377E-02   -0.10631E-02 20368   0.100E-01    0.167E-01
RMM:   5    -0.649922322350E+03   -0.91953E-03   -0.12714E-03 20366   0.346E-02    0.769E-02
RMM:   6    -0.649923371138E+03   -0.10488E-02   -0.22395E-04 20284   0.143E-02    0.404E-02
RMM:   7    -0.649924559480E+03   -0.11883E-02   -0.13426E-04 20054   0.103E-02    0.175E-02
RMM:   8    -0.649925415272E+03   -0.85579E-03   -0.73955E-05 17874   0.680E-03    0.107E-02
RMM:   9    -0.649926396022E+03   -0.98075E-03   -0.11769E-04 17950   0.751E-03    0.616E-03
RMM:  10    -0.649926993069E+03   -0.59705E-03   -0.86353E-05 17834   0.588E-03    0.399E-03
RMM:  11    -0.649927256689E+03   -0.26362E-03   -0.39774E-05 17340   0.380E-03    0.174E-03
RMM:  12    -0.649927294755E+03   -0.38066E-04   -0.32724E-06 14060   0.130E-03    0.103E-03
RMM:  13    -0.649927320615E+03   -0.25860E-04   -0.24586E-06 14096   0.114E-03    0.522E-04
RMM:  14    -0.649927327299E+03   -0.66837E-05   -0.61798E-07 12169   0.650E-04
  84 F= -.65512366E+03 E0= -.65510795E+03  d E =-.172991E-01  mag=    -0.0000
       N       E                     dE             d eps       ncg     rms          rms(c)
DAV:   1    -0.650117668612E+03   -0.19035E+00   -0.33827E+01 20160   0.702E+00    0.180E+00
RMM:   2    -0.650030420943E+03    0.87248E-01   -0.65587E-01 20228   0.100E+00    0.963E-01
RMM:   3    -0.649992762522E+03    0.37658E-01   -0.74026E-02 20396   0.277E-01    0.282E-01
RMM:   4    -0.649990342238E+03    0.24203E-02   -0.64045E-03 20352   0.775E-02    0.116E-01
RMM:   5    -0.649990029410E+03    0.31283E-03   -0.59758E-04 20412   0.237E-02    0.594E-02
RMM:   6    -0.649990124748E+03   -0.95338E-04   -0.11757E-04 20208   0.103E-02    0.293E-02
RMM:   7    -0.649990342663E+03   -0.21792E-03   -0.36034E-05 18654   0.589E-03    0.137E-02
RMM:   8    -0.649990599396E+03   -0.25673E-03   -0.13441E-05 16512   0.333E-03    0.808E-03
RMM:   9    -0.649991000969E+03   -0.40157E-03   -0.28264E-05 17190   0.366E-03    0.465E-03
RMM:  10    -0.649991221675E+03   -0.22071E-03   -0.15199E-05 16696   0.252E-03    0.276E-03
RMM:  11    -0.649991350392E+03   -0.12872E-03   -0.76198E-06 16152   0.168E-03    0.126E-03
RMM:  12    -0.649991387601E+03   -0.37209E-04   -0.75884E-07 12436   0.713E-04    0.690E-04
RMM:  13    -0.649991414937E+03   -0.27337E-04   -0.73765E-07 12621   0.726E-04    0.364E-04
RMM:  14    -0.649991423683E+03   -0.87454E-05   -0.12895E-07 11129   0.552E-04
  85 F= -.65518372E+03 E0= -.65516897E+03  d E =-.773558E-01  mag=     0.0000
       N       E                     dE             d eps       ncg     rms          rms(c)
DAV:   1    -0.650019341808E+03   -0.27927E-01   -0.60789E-01 26640   0.978E-01    0.218E-01
RMM:   2    -0.650018541371E+03    0.80044E-03   -0.10315E-02 20208   0.126E-01    0.114E-01
RMM:   3    -0.650018276214E+03    0.26516E-03   -0.92558E-04 20590   0.316E-02    0.362E-02
RMM:   4    -0.650018279569E+03   -0.33551E-05   -0.48546E-05 19930   0.728E-03
  86 F= -.65520937E+03 E0= -.65519468E+03  d E =-.256479E-01  mag=     0.0000
       N       E                     dE             d eps       ncg     rms          rms(c)
DAV:   1    -0.650066487314E+03   -0.48211E-01   -0.54760E+00 20160   0.293E+00    0.656E-01
RMM:   2    -0.650059493105E+03    0.69942E-02   -0.93130E-02 20208   0.378E-01    0.343E-01
RMM:   3    -0.650057116150E+03    0.23770E-02   -0.84006E-03 20594   0.952E-02    0.108E-01
RMM:   4    -0.650057113165E+03    0.29853E-05   -0.43159E-04 20194   0.217E-02    0.354E-02
RMM:   5    -0.650057149653E+03   -0.36488E-04   -0.51961E-05 20182   0.748E-03    0.150E-02
RMM:   6    -0.650057183464E+03   -0.33812E-04   -0.58081E-06 15376   0.256E-03    0.698E-03
RMM:   7    -0.650057219808E+03   -0.36344E-04   -0.36113E-06 15174   0.207E-03    0.237E-03
RMM:   8    -0.650057236326E+03   -0.16517E-04   -0.56180E-07 13990   0.919E-04    0.126E-03
RMM:   9    -0.650057257623E+03   -0.21298E-04   -0.33911E-07 12598   0.705E-04    0.553E-04
RMM:  10    -0.650057273283E+03   -0.15660E-04   -0.33476E-07 11990   0.638E-04    0.339E-04
RMM:  11    -0.650057291295E+03   -0.18011E-04   -0.45907E-07 11883   0.641E-04    0.193E-04
RMM:  12    -0.650057299108E+03   -0.78130E-05   -0.20230E-07 11212   0.580E-04
  87 F= -.65524476E+03 E0= -.65523029E+03  d E =-.610359E-01  mag=     0.0000
       N       E                     dE             d eps       ncg     rms          rms(c)
DAV:   1    -0.650094670869E+03   -0.37380E-01   -0.13845E+00 25920   0.148E+00    0.309E-01
RMM:   2    -0.650093584324E+03    0.10865E-02   -0.21847E-02 20232   0.184E-01    0.165E-01
RMM:   3    -0.650093122457E+03    0.46187E-03   -0.17523E-03 20574   0.442E-02    0.537E-02
RMM:   4    -0.650093118219E+03    0.42372E-05   -0.94385E-05 20176   0.104E-02
  88 F= -.65527524E+03 E0= -.65526074E+03  d E =-.304874E-01  mag=     0.0000
       N       E                     dE             d eps       ncg     rms          rms(c)
DAV:   1    -0.650125160704E+03   -0.32038E-01   -0.34539E+00 20640   0.234E+00    0.489E-01
RMM:   2    -0.650122639515E+03    0.25212E-02   -0.54752E-02 20230   0.292E-01    0.264E-01
RMM:   3    -0.650121511847E+03    0.11277E-02   -0.43500E-03 20580   0.699E-02    0.864E-02
RMM:   4    -0.650121492691E+03    0.19156E-04   -0.24212E-04 20308   0.166E-02    0.285E-02
RMM:   5    -0.650121478985E+03    0.13706E-04   -0.32918E-05 19038   0.590E-03    0.122E-02
RMM:   6    -0.650121476515E+03    0.24692E-05   -0.56659E-06 15238   0.244E-03
  89 F= -.65529516E+03 E0= -.65528064E+03  d E =-.504012E-01  mag=     0.0000
       N       E                     dE             d eps       ncg     rms          rms(c)
DAV:   1    -0.650145746492E+03   -0.24268E-01   -0.11077E+00 22560   0.132E+00    0.274E-01
RMM:   2    -0.650144721709E+03    0.10248E-02   -0.19706E-02 20232   0.174E-01    0.150E-01
RMM:   3    -0.650144141135E+03    0.58057E-03   -0.16593E-03 20512   0.425E-02    0.547E-02
RMM:   4    -0.650144057274E+03    0.83861E-04   -0.15659E-04 20188   0.124E-02    0.189E-02
RMM:   5    -0.650144031091E+03    0.26183E-04   -0.17307E-05 16686   0.421E-03    0.886E-03
RMM:   6    -0.650144028996E+03    0.20949E-05   -0.47426E-06 15268   0.218E-03
  90 F= -.65531556E+03 E0= -.65530123E+03  d E =-.204039E-01  mag=     0.0000
       N       E                     dE             d eps       ncg     rms          rms(c)
DAV:   1    -0.650172317484E+03   -0.28286E-01   -0.57299E+00 20160   0.301E+00    0.622E-01
RMM:   2    -0.650167114381E+03    0.52031E-02   -0.10142E-01 20232   0.394E-01    0.341E-01
RMM:   3    -0.650164090719E+03    0.30237E-02   -0.85605E-03 20510   0.967E-02    0.124E-01
RMM:   4    -0.650163696913E+03    0.39381E-03   -0.82127E-04 20200   0.283E-02    0.421E-02
RMM:   5    -0.650163584243E+03    0.11267E-03   -0.96894E-05 20398   0.954E-03    0.198E-02
RMM:   6    -0.650163575683E+03    0.85592E-05   -0.19270E-05 17028   0.385E-03
  91 F= -.65533009E+03 E0= -.65531623E+03  d E =-.349342E-01  mag=     0.0000
       N       E                     dE             d eps       ncg     rms          rms(c)
DAV:   1    -0.650178896435E+03   -0.15312E-01   -0.63750E-01 26880   0.996E-01    0.201E-01
RMM:   2    -0.650178332538E+03    0.56390E-03   -0.10804E-02 20212   0.128E-01    0.109E-01
RMM:   3    -0.650178035652E+03    0.29689E-03   -0.89429E-04 20464   0.316E-02    0.397E-02
RMM:   4    -0.650178018600E+03    0.17052E-04   -0.85369E-05 20160   0.908E-03    0.134E-02
RMM:   5    -0.650178039426E+03   -0.20827E-04   -0.11939E-05 16274   0.338E-03    0.623E-03
RMM:   6    -0.650178073058E+03   -0.33632E-04   -0.36793E-06 15285   0.178E-03    0.372E-03
RMM:   7    -0.650178125862E+03   -0.52803E-04   -0.32577E-06 15480   0.145E-03    0.272E-03
RMM:   8    -0.650178172468E+03   -0.46607E-04   -0.16022E-06 13559   0.992E-04    0.176E-03
RMM:   9    -0.650178219778E+03   -0.47310E-04   -0.21629E-06 14617   0.104E-03    0.945E-04
RMM:  10    -0.650178240340E+03   -0.20562E-04   -0.90197E-07 12495   0.708E-04    0.571E-04
RMM:  11    -0.650178251447E+03   -0.11107E-04   -0.37506E-07 11693   0.604E-04    0.264E-04
RMM:  12    -0.650178255498E+03   -0.40515E-05   -0.41812E-08 10468   0.495E-04
  92 F= -.65534175E+03 E0= -.65532803E+03  d E =-.116545E-01  mag=    -0.0000
       N       E                     dE             d eps       ncg     rms          rms(c)
DAV:   1    -0.650194202910E+03   -0.15951E-01   -0.11433E+00 24960   0.133E+00    0.270E-01
RMM:   2    -0.650193205055E+03    0.99785E-03   -0.19279E-02 20208   0.171E-01    0.147E-01
RMM:   3    -0.650192710348E+03    0.49471E-03   -0.15936E-03 20462   0.423E-02    0.535E-02
RMM:   4    -0.650192642195E+03    0.68153E-04   -0.14604E-04 20204   0.121E-02    0.175E-02
RMM:   5    -0.650192614470E+03    0.27725E-04   -0.17019E-05 16762   0.425E-03    0.735E-03
RMM:   6    -0.650192609014E+03    0.54565E-05   -0.37074E-06 15122   0.199E-03
  93 F= -.65535200E+03 E0= -.65533847E+03  d E =-.219117E-01  mag=    -0.0000
       N       E                     dE             d eps       ncg     rms          rms(c)
DAV:   1    -0.650210962724E+03   -0.18348E-01   -0.45705E+00 20160   0.267E+00    0.537E-01
RMM:   2    -0.650207096490E+03    0.38662E-02   -0.76779E-02 20210   0.341E-01    0.294E-01
RMM:   3    -0.650205022749E+03    0.20737E-02   -0.63359E-03 20458   0.843E-02    0.107E-01
RMM:   4    -0.650204755137E+03    0.26761E-03   -0.59410E-04 20196   0.243E-02    0.350E-02
RMM:   5    -0.650204670207E+03    0.84930E-04   -0.74734E-05 20196   0.855E-03    0.151E-02
RMM:   6    -0.650204666914E+03    0.32932E-05   -0.13108E-05 16398   0.328E-03
  94 F= -.65535573E+03 E0= -.65534251E+03  d E =-.256436E-01  mag=     0.0000
       N       E                     dE             d eps       ncg     rms          rms(c)
DAV:   1    -0.650203749523E+03    0.92068E-03   -0.45237E-01 26880   0.840E-01    0.171E-01
RMM:   2    -0.650203445141E+03    0.30438E-03   -0.76830E-03 20198   0.108E-01    0.938E-02
RMM:   3    -0.650203339600E+03    0.10554E-03   -0.62919E-04 20466   0.266E-02    0.343E-02
RMM:   4    -0.650203367803E+03   -0.28203E-04   -0.56416E-05 20152   0.759E-03    0.112E-02
RMM:   5    -0.650203387551E+03   -0.19747E-04   -0.59675E-06 15319   0.266E-03    0.448E-03
RMM:   6    -0.650203401288E+03   -0.13738E-04   -0.13376E-06 14940   0.128E-03    0.196E-03
RMM:   7    -0.650203410751E+03   -0.94622E-05   -0.20978E-07 11842   0.731E-04
  95 F= -.65535712E+03 E0= -.65534381E+03  d E =-.270271E-01  mag=     0.0000
       N       E                     dE             d eps       ncg     rms          rms(c)
DAV:   1    -0.650215988673E+03   -0.12587E-01   -0.18376E-01 26160   0.550E-01    0.124E-01
RMM:   2    -0.650215667454E+03    0.32122E-03   -0.31520E-03 20252   0.697E-02    0.613E-02
RMM:   3    -0.650215596335E+03    0.71119E-04   -0.20674E-04 20620   0.150E-02    0.284E-02
RMM:   4    -0.650215588226E+03    0.81095E-05   -0.33263E-05 19626   0.571E-03
  96 F= -.65536770E+03 E0= -.65535441E+03  d E =-.105807E-01  mag=    -0.0000
       N       E                     dE             d eps       ncg     rms          rms(c)
DAV:   1    -0.650239537040E+03   -0.23941E-01   -0.16546E+00 20160   0.165E+00    0.373E-01
RMM:   2    -0.650236742093E+03    0.27949E-02   -0.28402E-02 20260   0.209E-01    0.185E-01
RMM:   3    -0.650236108153E+03    0.63394E-03   -0.18724E-03 20622   0.452E-02    0.855E-02
RMM:   4    -0.650236018784E+03    0.89369E-04   -0.30131E-04 20368   0.171E-02    0.270E-02
RMM:   5    -0.650236009272E+03    0.95113E-05   -0.21036E-05 16938   0.482E-03
  97 F= -.65538333E+03 E0= -.65537010E+03  d E =-.262158E-01  mag=    -0.0000
       N       E                     dE             d eps       ncg     rms          rms(c)
DAV:   1    -0.650246856333E+03   -0.10838E-01   -0.47287E-01 24960   0.874E-01    0.195E-01
RMM:   2    -0.650246301987E+03    0.55435E-03   -0.74183E-03 20240   0.107E-01    0.102E-01
RMM:   3    -0.650246108589E+03    0.19340E-03   -0.60429E-04 20572   0.259E-02    0.365E-02
RMM:   4    -0.650246104809E+03    0.37806E-05   -0.53132E-05 19824   0.748E-03
  98 F= -.65539415E+03 E0= -.65538095E+03  d E =-.108157E-01  mag=    -0.0000
       N       E                     dE             d eps       ncg     rms          rms(c)
DAV:   1    -0.650249333799E+03   -0.32252E-02   -0.35777E-01 21120   0.760E-01    0.170E-01
RMM:   2    -0.650248940578E+03    0.39322E-03   -0.56545E-03 20244   0.937E-02    0.892E-02
RMM:   3    -0.650248801143E+03    0.13944E-03   -0.45947E-04 20586   0.226E-02    0.320E-02
RMM:   4    -0.650248799485E+03    0.16580E-05   -0.39670E-05 19734   0.651E-03
  99 F= -.65539747E+03 E0= -.65538431E+03  d E =-.141384E-01  mag=    -0.0000
       N       E                     dE             d eps       ncg     rms          rms(c)
DAV:   1    -0.650257740672E+03   -0.89395E-02   -0.58313E-01 20640   0.953E-01    0.200E-01
RMM:   2    -0.650257223915E+03    0.51676E-03   -0.89018E-03 20226   0.118E-01    0.107E-01
RMM:   3    -0.650257029307E+03    0.19461E-03   -0.75796E-04 20574   0.289E-02    0.358E-02
RMM:   4    -0.650257030151E+03   -0.84377E-06   -0.47957E-05 19884   0.721E-03
 100 F= -.65540591E+03 E0= -.65539276E+03  d E =-.843361E-02  mag=    -0.0000
